 Gaussian 09, Revision D.01,
 Gaussian 09:  AM64L-G09RevD.01 24-Apr-2013

 -----------------------------------------
 # hf/gen pop=mk iop(6/33=2,6/41=5,6/42=2)
 -----------------------------------------

 -------
 na resp
 -------
 Symbolic Z-matrix:
 Charge =  0 Multiplicity = 1

                         Standard orientation:
 ---------------------------------------------------------------------
 Center     Atomic      Atomic             Coordinates (Angstroms)
 Number     Number       Type             X           Y           Z
 ---------------------------------------------------------------------
      1          6           0        0.548228   -2.142951   -0.050903
      2          6           0       -0.812595   -1.830693   -0.052747
      3          6           0       -1.218899   -0.497918   -0.000232
      4          6           0       -0.270500    0.522153    0.042425
      5          6           0        1.091736    0.204811    0.045037
      6          6           0        1.509293   -1.126584    0.004452
      7          8           0        2.856352   -1.372019    0.017684
      8          6           0        1.940745    1.452993    0.118942
      9          6           0        0.936786    2.576885   -0.246010
     10          6           0       -0.464425    2.020111    0.115579
     11         17           0       -2.940607   -0.113956    0.007185
     12          1           0        0.859691   -3.185053   -0.093522
     13          1           0       -1.553597   -2.621811   -0.096134
     14          1           0        3.002710   -2.329614   -0.029300
     15          1           0        2.339526    1.583531    1.135496
     16          1           0        2.805855    1.418021   -0.551718
     17          1           0        1.157611    3.522328    0.258518
     18          1           0        0.981663    2.764133   -1.325170
     19          1           0       -1.252687    2.378770   -0.554276
     20          1           0       -0.763478    2.310253    1.133223
 ---------------------------------------------------------------------

 SCF Done:  E(RHF) =  -880.397258339     A.U. after   14 cycles

 The electronic state is 1-A.
 Alpha  occ. eigenvalues -- -104.81369 -20.59864 -11.30985 -11.29177 -11.25288
 Alpha  occ. eigenvalues --  -11.25091 -11.24321 -11.23654 -11.23108 -11.22798
 Alpha  occ. eigenvalues --  -11.22636 -10.55181  -8.02038  -8.01717  -8.01710
 Alpha  occ. eigenvalues --   -1.40708  -1.18853  -1.12427  -1.08862  -1.00011
 Alpha  occ. eigenvalues --   -0.98545  -0.94191  -0.83619  -0.81834  -0.78618
 Alpha  occ. eigenvalues --   -0.71506  -0.69061  -0.64663  -0.63417  -0.61388
 Alpha  occ. eigenvalues --   -0.59084  -0.58119  -0.56576  -0.55913  -0.52256
 Alpha  occ. eigenvalues --   -0.51275  -0.50326  -0.48975  -0.48253  -0.48205
 Alpha  occ. eigenvalues --   -0.44506  -0.44154  -0.33113  -0.30901
 Alpha virt. eigenvalues --    0.13359   0.14229   0.19851   0.21868   0.23989
 Alpha virt. eigenvalues --    0.27052   0.27817   0.29388   0.31680   0.31869
 Alpha virt. eigenvalues --    0.32119   0.36123   0.36400   0.37694   0.39975

 Mulliken charges:
               1
     1  C   -0.285229
     2  C   -0.167622
     3  C   -0.195647
     4  C    0.061446
     5  C   -0.032260
     6  C    0.425061
     7  O   -0.805839
     8  C   -0.326262
     9  C   -0.343508
    10  C   -0.346399
    11  Cl  -0.009032
    12  H    0.202031
    13  H    0.232085
    14  H    0.465142
    15  H    0.185061
    16  H    0.194612
    17  H    0.176276
    18  H    0.179611
    19  H    0.198879
    20  H    0.191592
 Sum of Mulliken charges =   0.00000

 Dipole moment (field-independent basis, Debye):
    X=              1.7696    Y=             -1.1514    Z=             -0.0674  Tot=              2.1123
 Quadrupole moment (field-independent basis, Debye-Ang):
   XX=            -76.5047   YY=            -58.5524   ZZ=            -74.0480
   XY=             -3.6720   XZ=             -0.1719   YZ=              0.6645

 ESP charges:
               1
     1  C   -0.508288
     2  C    0.062533
     3  C   -0.235516
     4  C    0.216804
     5  C   -0.146418
     6  C    0.422664
     7  O   -0.627756
     8  C   -0.061189
     9  C   -0.141002
    10  C   -0.005941
    11  Cl  -0.108004
    12  H    0.210340
    13  H    0.141809
    14  H    0.449988
    15  H    0.068246
    16  H    0.075690
    17  H    0.051258
    18  H    0.060527
    19  H    0.035894
    20  H    0.038363
 Sum of ESP charges =   0.00000

 Normal termination of Gaussian 09 at Thu Jan 16 21:47:15 2014.
