 Gaussian 09, Revision D.01,
 Gaussian 09:  AM64L-G09RevD.01 24-Apr-2013

 -----------------------------------------
 # hf/gen pop=mk iop(6/33=2,6/41=5,6/42=2)
 -----------------------------------------

 -------
 na resp
 -------
 Symbolic Z-matrix:
 Charge =  0 Multiplicity = 1

                         Standard orientation:
 ---------------------------------------------------------------------
 Center     Atomic      Atomic             Coordinates (Angstroms)
 Number     Number       Type             X           Y           Z
 ---------------------------------------------------------------------
      1          6           0        2.543675    0.538049    0.111178
      2          6           0        1.161368    0.651578    0.049283
      3          6           0        0.404379   -0.547934    0.056448
      4          7           0        1.054880   -1.720908    0.046630
      5          6           0        2.396694   -1.710870    0.060074
      6          7           0        3.191859   -0.627870    0.136429
      7          7           0        3.019832   -2.925504   -0.024748
      8          7           0       -0.978972   -0.595844    0.014762
      9          6           0       -1.786434    0.167326    0.981174
     10          6           0       -3.197573    0.349734    0.429981
     11          8           0       -3.804672   -0.900028    0.133810
     12          6           0       -3.027278   -1.628972   -0.806485
     13          6           0       -1.608800   -1.884521   -0.298484
     14         35           0        0.424109    2.398838   -0.197715
     15          1           0        3.155720    1.437554    0.123668
     16          1           0        3.996163   -2.948833    0.230522
     17          1           0        2.462835   -3.741676    0.179945
     18          1           0       -1.836754   -0.386624    1.933185
     19          1           0       -1.334711    1.138993    1.174021
     20          1           0       -3.155608    0.980339   -0.473024
     21          1           0       -3.835872    0.837220    1.172936
     22          1           0       -2.982401   -1.084559   -1.764231
     23          1           0       -3.546929   -2.578421   -0.967443
     24          1           0       -1.017682   -2.394778   -1.060817
     25          1           0       -1.640589   -2.533795    0.590268
 ---------------------------------------------------------------------

 SCF Done:  E(RHF) =  -3171.58757587     A.U. after   15 cycles

 The electronic state is 1-A.
 Alpha  occ. eigenvalues -- -489.84945 -64.39299 -58.55984 -58.55813 -58.55798
 Alpha  occ. eigenvalues --  -20.56257 -15.58925 -15.57926 -15.56337 -15.56189
 Alpha  occ. eigenvalues --  -11.36207 -11.35309 -11.30657 -11.28589 -11.27928
 Alpha  occ. eigenvalues --  -11.27788 -11.26595 -11.25942  -9.67035  -7.48603
 Alpha  occ. eigenvalues --   -7.47728  -7.47699  -3.22928  -3.22510  -3.22488
 Alpha  occ. eigenvalues --   -3.21461  -3.21460  -1.38078  -1.33885  -1.27342
 Alpha  occ. eigenvalues --   -1.20509  -1.17925  -1.08653  -1.04508  -0.99064
 Alpha  occ. eigenvalues --   -0.95543  -0.89564  -0.87616  -0.84901  -0.79659
 Alpha  occ. eigenvalues --   -0.74569  -0.73996  -0.67867  -0.66473  -0.65240
 Alpha  occ. eigenvalues --   -0.64707  -0.63551  -0.62218  -0.60523  -0.59675
 Alpha  occ. eigenvalues --   -0.59289  -0.57448  -0.55439  -0.51304  -0.50948
 Alpha  occ. eigenvalues --   -0.49822  -0.47304  -0.46714  -0.45358  -0.43228
 Alpha  occ. eigenvalues --   -0.42622  -0.42020  -0.40075  -0.36873  -0.31467
 Alpha virt. eigenvalues --    0.11476   0.14077   0.17010   0.23706   0.24710
 Alpha virt. eigenvalues --    0.26104   0.27579   0.28512   0.29207   0.30255
 Alpha virt. eigenvalues --    0.30338   0.31462   0.32380   0.32423   0.33965

 Mulliken charges:
               1
     1  C    0.148587
     2  C   -0.161496
     3  C    0.713997
     4  N   -0.699477
     5  C    0.829916
     6  N   -0.618576
     7  N   -0.933941
     8  N   -0.735646
     9  C   -0.155530
    10  C    0.014547
    11  O   -0.661973
    12  C    0.011052
    13  C   -0.120164
    14  Br  -0.135641
    15  H    0.240617
    16  H    0.401568
    17  H    0.397744
    18  H    0.176509
    19  H    0.215610
    20  H    0.165826
    21  H    0.182237
    22  H    0.160225
    23  H    0.181521
    24  H    0.207684
    25  H    0.174804
 Sum of Mulliken charges =   0.00000

 Dipole moment (field-independent basis, Debye):
    X=              0.4299    Y=             -1.3957    Z=              0.8399  Tot=              1.6847
 Quadrupole moment (field-independent basis, Debye-Ang):
   XX=           -100.7916   YY=            -85.1535   ZZ=            -94.9766
   XY=             -6.3404   XZ=              3.4630   YZ=              0.1795

 ESP charges:
               1
     1  C    0.727599
     2  C   -0.899227
     3  C    1.134754
     4  N   -0.968043
     5  C    1.148297
     6  N   -0.896532
     7  N   -1.001164
     8  N   -0.435712
     9  C    0.096214
    10  C    0.151516
    11  O   -0.440382
    12  C    0.142086
    13  C   -0.156902
    14  Br   0.001034
    15  H    0.048056
    16  H    0.417281
    17  H    0.415260
    18  H    0.051988
    19  H    0.013810
    20  H    0.037743
    21  H    0.055725
    22  H    0.040071
    23  H    0.069118
    24  H    0.136368
    25  H    0.111043
 Sum of ESP charges =   0.00000

 Normal termination of Gaussian 09 at Thu Jan 16 22:40:07 2014.
