 Gaussian 09, Revision D.01,
 Gaussian 09:  AM64L-G09RevD.01 24-Apr-2013

 ------------------------------------------------------------------
 # hf/gen pseudo=read pop=(mk, readradii) iop(6/33=2,6/41=5,6/42=2)
 ------------------------------------------------------------------

 -------
 na resp
 -------
 Symbolic Z-matrix:
 Charge =  0 Multiplicity = 1

                         Standard orientation:
 ---------------------------------------------------------------------
 Center     Atomic      Atomic             Coordinates (Angstroms)
 Number     Number       Type             X           Y           Z
 ---------------------------------------------------------------------
      1          6           0        1.132876    2.871471    0.472755
      2          6           0       -0.165218    2.364128    0.540261
      3          6           0       -0.398406    0.994558    0.379666
      4          6           0        0.687074    0.134164    0.157810
      5          6           0        1.974863    0.656004    0.082184
      6          6           0        2.215290    2.021581    0.239056
      7         53           0        3.621660   -0.673481   -0.267466
      8          6           0       -1.813696    0.461775    0.401843
      9          1           0       -2.489394    1.249167    0.746668
     10          6           0       -3.424098   -0.862373   -0.773669
     11          1           0       -3.534514   -1.439856   -1.699771
     12          6           0       -3.244250   -1.814248    0.432207
     13         16           0       -2.046176   -1.000892    1.568655
     14          6           0       -4.713364   -0.013961   -0.654854
     15          8           0       -4.596594    1.210926   -1.196010
     16          1           0        1.306994    3.935895    0.602535
     17          1           0       -1.001266    3.035280    0.718300
     18          1           0        0.517128   -0.934045    0.075453
     19          1           0        3.223614    2.417392    0.186662
     20          1           0       -4.204875   -1.975847    0.924797
     21          1           0       -2.835172   -2.777107    0.116494
     22          7           0       -2.266604    0.028033   -0.922582
     23          1           0       -1.506263   -0.445401   -1.406875
     24          1           0       -3.656140    1.287692   -1.482892
     25          8           0       -5.737089   -0.425834   -0.167697
 ---------------------------------------------------------------------

 SCF Done:  E(RHF) =  -997.340556299     A.U. after   16 cycles

 The electronic state is 1-A.
 Alpha  occ. eigenvalues --  -91.94411 -20.61090 -20.55570 -15.60872 -11.39370
 Alpha  occ. eigenvalues --  -11.32631 -11.31165 -11.31132 -11.27700 -11.27606
 Alpha  occ. eigenvalues --  -11.26963 -11.26907 -11.26543 -11.26377  -8.95920
 Alpha  occ. eigenvalues --   -6.64098  -6.63991  -6.63767  -1.45946  -1.36462
 Alpha  occ. eigenvalues --   -1.27915  -1.18479  -1.08253  -1.05953  -1.04866
 Alpha  occ. eigenvalues --   -1.00469  -0.90752  -0.89947  -0.85992  -0.82660
 Alpha  occ. eigenvalues --   -0.81207  -0.80339  -0.73856  -0.72245  -0.70377
 Alpha  occ. eigenvalues --   -0.68093  -0.66095  -0.63729  -0.63046  -0.62353
 Alpha  occ. eigenvalues --   -0.61353  -0.58903  -0.58039  -0.57386  -0.55100
 Alpha  occ. eigenvalues --   -0.54513  -0.52954  -0.51023  -0.47892  -0.47153
 Alpha  occ. eigenvalues --   -0.46418  -0.44696  -0.41697  -0.40740  -0.37868
 Alpha  occ. eigenvalues --   -0.36696  -0.35031  -0.33753
 Alpha virt. eigenvalues --    0.09784   0.10073   0.10808   0.15583   0.16205
 Alpha virt. eigenvalues --    0.20977   0.21852   0.23066   0.25381   0.26235
 Alpha virt. eigenvalues --    0.28112   0.28966   0.29887   0.30321   0.31603

 Mulliken charges:
               1
     1  C   -0.198882
     2  C   -0.212337
     3  C    0.028321
     4  C   -0.147621
     5  C   -0.397714
     6  C   -0.141640
     7  I    0.200359
     8  C   -0.176510
     9  H    0.231866
    10  C   -0.122246
    11  H    0.240313
    12  C   -0.508671
    13  S    0.141142
    14  C    0.851421
    15  O   -0.764284
    16  H    0.223231
    17  H    0.224468
    18  H    0.245729
    19  H    0.233411
    20  H    0.262048
    21  H    0.208931
    22  N   -0.759647
    23  H    0.385176
    24  H    0.517161
    25  O   -0.564024
 Sum of Mulliken charges =   0.00000

 Dipole moment (field-independent basis, Debye):
    X=              3.6347    Y=              0.5941    Z=             -2.0077  Tot=              4.1946
 Quadrupole moment (field-independent basis, Debye-Ang):
   XX=           -148.2142   YY=            -97.8693   ZZ=           -112.7733
   XY=              7.9769   XZ=              3.6764   YZ=              6.1130

 ESP charges:
               1
     1  C   -0.227470
     2  C   -0.169669
     3  C    0.138707
     4  C    0.151200
     5  C   -0.441125
     6  C    0.140220
     7  I    0.010595
     8  C    0.071445
     9  H    0.145633
    10  C   -0.185167
    11  H    0.162629
    12  C    0.172838
    13  S   -0.263315
    14  C    0.799954
    15  O   -0.601430
    16  H    0.164777
    17  H    0.153464
    18  H    0.060705
    19  H    0.111857
    20  H    0.041211
    21  H    0.047102
    22  N   -0.820127
    23  H    0.449659
    24  H    0.440998
    25  O   -0.554691
 Sum of ESP charges =   0.00000

 Normal termination of Gaussian 09 at Fri Jan 17 11:57:33 2014.
