 Gaussian 09, Revision D.01,
 Gaussian 09:  AM64L-G09RevD.01 24-Apr-2013

 -----------------------------------------
 # hf/gen pop=mk iop(6/33=2,6/41=5,6/42=2)
 -----------------------------------------

 -------
 na resp
 -------
 Symbolic Z-matrix:
 Charge =  0 Multiplicity = 1

                         Standard orientation:
 ---------------------------------------------------------------------
 Center     Atomic      Atomic             Coordinates (Angstroms)
 Number     Number       Type             X           Y           Z
 ---------------------------------------------------------------------
      1          6           0       -1.015701    2.470528   -0.300538
      2          6           0       -1.678702    1.124136   -0.598940
      3          6           0       -1.011309   -0.080649    0.116999
      4          6           0        0.416697   -0.294072   -0.376754
      5          6           0        1.482488   -0.062866    0.382823
      6         17           0        3.123928   -0.303922   -0.176536
      7          6           0       -1.782293   -1.310670   -0.163065
      8          6           0       -2.396085   -2.327986   -0.380260
      9          8           0       -1.049869    0.215646    1.516926
     10          1           0        0.026227    2.491213   -0.635713
     11          1           0       -1.552778    3.272843   -0.818099
     12          1           0       -1.033266    2.684637    0.771618
     13          1           0       -2.727110    1.139564   -0.280752
     14          1           0       -1.673530    0.920804   -1.676324
     15          1           0        0.525668   -0.649563   -1.398150
     16          1           0        1.425546    0.301055    1.400852
     17          1           0       -2.944488   -3.222953   -0.570708
     18          1           0       -0.844663   -0.606611    1.991399
 ---------------------------------------------------------------------

 SCF Done:  E(RHF) =  -804.552395066     A.U. after   15 cycles

 The electronic state is 1-A.
 Alpha  occ. eigenvalues -- -104.82020 -20.58073 -11.33486 -11.29906 -11.25771
 Alpha  occ. eigenvalues --  -11.24617 -11.24245 -11.23567 -11.21298 -10.55916
 Alpha  occ. eigenvalues --   -8.02773  -8.02436  -8.02435  -1.38315  -1.15511
 Alpha  occ. eigenvalues --   -1.09653  -1.02772  -1.01650  -0.93062  -0.82777
 Alpha  occ. eigenvalues --   -0.77990  -0.75307  -0.70596  -0.68026  -0.63684
 Alpha  occ. eigenvalues --   -0.60162  -0.59114  -0.56732  -0.54231  -0.51819
 Alpha  occ. eigenvalues --   -0.51238  -0.49905  -0.49121  -0.47579  -0.44841
 Alpha  occ. eigenvalues --   -0.40455  -0.39476  -0.36374
 Alpha virt. eigenvalues --    0.14653   0.17745   0.20254   0.22466   0.24871
 Alpha virt. eigenvalues --    0.25770   0.26137   0.27467   0.30279   0.31593
 Alpha virt. eigenvalues --    0.32119   0.32595   0.34533   0.40216   0.42301

 Mulliken charges:
               1
     1  C   -0.510042
     2  C   -0.302474
     3  C    0.312005
     4  C   -0.151890
     5  C   -0.303460
     6  Cl  -0.034610
     7  C    0.099302
     8  C   -0.464926
     9  O   -0.797394
    10  H    0.174798
    11  H    0.169708
    12  H    0.195167
    13  H    0.192890
    14  H    0.172477
    15  H    0.232662
    16  H    0.253612
    17  H    0.303899
    18  H    0.458275
 Sum of Mulliken charges =   0.00000

 Dipole moment (field-independent basis, Debye):
    X=             -1.6386    Y=             -1.0397    Z=             -0.1952  Tot=              1.9504
 Quadrupole moment (field-independent basis, Debye-Ang):
   XX=            -65.9031   YY=            -57.4904   ZZ=            -59.0325
   XY=              4.1856   XZ=              3.1141   YZ=             -1.4673

 ESP charges:
               1
     1  C   -0.293064
     2  C   -0.005793
     3  C    0.825834
     4  C   -0.228243
     5  C   -0.195946
     6  Cl  -0.105479
     7  C   -0.389057
     8  C   -0.261830
     9  O   -0.737110
    10  H    0.067812
    11  H    0.082628
    12  H    0.090497
    13  H    0.046643
    14  H    0.008549
    15  H    0.165671
    16  H    0.202079
    17  H    0.284528
    18  H    0.442280
 Sum of ESP charges =   0.00000

 Normal termination of Gaussian 09 at Thu Jan 16 21:47:05 2014.
