 Gaussian 09, Revision D.01,
 Gaussian 09:  AM64L-G09RevD.01 24-Apr-2013

 -----------------------------------------
 # hf/gen pop=mk iop(6/33=2,6/41=5,6/42=2)
 -----------------------------------------

 -------
 na resp
 -------
 Symbolic Z-matrix:
 Charge =  0 Multiplicity = 1

                         Standard orientation:
 ---------------------------------------------------------------------
 Center     Atomic      Atomic             Coordinates (Angstroms)
 Number     Number       Type             X           Y           Z
 ---------------------------------------------------------------------
      1          6           0       -5.116874   -1.271678    0.952246
      2          6           0       -5.199464   -0.580491   -0.409349
      3          6           0       -6.575530    0.042502   -0.652181
      4          7           0       -4.200305    0.497941   -0.488777
      5          7           0       -2.885292    0.035293   -0.540934
      6          6           0       -1.930280    0.476859    0.343876
      7          8           0       -2.102556    1.316932    1.201688
      8          6           0       -0.581542   -0.239501    0.169169
      9          8           0        0.409462    0.763425    0.044794
     10          6           0        1.720024    0.381403    0.012174
     11          6           0        2.650576    1.428031   -0.068619
     12          6           0        4.011854    1.156250   -0.112902
     13          6           0        4.451054   -0.169852   -0.075906
     14          6           0        3.539357   -1.215851    0.005003
     15          6           0        2.168430   -0.943307    0.048251
     16         17           0        6.176680   -0.516715   -0.132836
     17          1           0       -5.845728   -2.087662    1.011175
     18          1           0       -4.121731   -1.694977    1.121970
     19          1           0       -5.320522   -0.553901    1.753505
     20          1           0       -5.017226   -1.338668   -1.197895
     21          1           0       -6.632943    0.520064   -1.638658
     22          1           0       -7.355041   -0.724532   -0.608639
     23          1           0       -6.790342    0.800513    0.108677
     24          1           0       -4.374711    1.086826   -1.302247
     25          1           0       -2.627088   -0.630028   -1.266205
     26          1           0       -0.566014   -0.908444   -0.704729
     27          1           0       -0.409359   -0.848114    1.068101
     28          1           0        2.283053    2.448800   -0.091252
     29          1           0        4.730963    1.966178   -0.173472
     30          1           0        3.889664   -2.242196    0.033828
     31          1           0        1.471763   -1.771379    0.109600
 ---------------------------------------------------------------------

 SCF Done:  E(RHF) =  -1143.33748531     A.U. after   16 cycles

 The electronic state is 1-A.
 Alpha  occ. eigenvalues -- -104.81765 -20.60425 -20.52844 -15.62216 -15.59713
 Alpha  occ. eigenvalues --  -11.36127 -11.31764 -11.31370 -11.29912 -11.27298
 Alpha  occ. eigenvalues --  -11.25913 -11.25668 -11.25032 -11.24359 -11.22665
 Alpha  occ. eigenvalues --  -11.21758 -10.55597  -8.02455  -8.02128  -8.02120
 Alpha  occ. eigenvalues --   -1.42921  -1.38477  -1.30837  -1.18470  -1.13778
 Alpha  occ. eigenvalues --   -1.11279  -1.04177  -1.03271  -1.00368  -0.95564
 Alpha  occ. eigenvalues --   -0.94334  -0.85727  -0.81756  -0.80808  -0.79818
 Alpha  occ. eigenvalues --   -0.74113  -0.73131  -0.69977  -0.67976  -0.66989
 Alpha  occ. eigenvalues --   -0.65709  -0.64882  -0.62610  -0.61753  -0.60725
 Alpha  occ. eigenvalues --   -0.59904  -0.56130  -0.55813  -0.55250  -0.54793
 Alpha  occ. eigenvalues --   -0.54240  -0.52760  -0.52410  -0.50734  -0.50526
 Alpha  occ. eigenvalues --   -0.50240  -0.49259  -0.45098  -0.44831  -0.42189
 Alpha  occ. eigenvalues --   -0.41364  -0.39550  -0.35476  -0.31580
 Alpha virt. eigenvalues --    0.12289   0.13953   0.18218   0.19244   0.19580
 Alpha virt. eigenvalues --    0.21843   0.24945   0.26512   0.27237   0.28140
 Alpha virt. eigenvalues --    0.28440   0.28889   0.29517   0.30982   0.31306

 Mulliken charges:
               1
     1  C   -0.475796
     2  C    0.035078
     3  C   -0.510721
     4  N   -0.473652
     5  N   -0.680209
     6  C    0.811829
     7  O   -0.582443
     8  C   -0.087691
     9  O   -0.688894
    10  C    0.464710
    11  C   -0.247277
    12  C   -0.165424
    13  C   -0.160268
    14  C   -0.164729
    15  C   -0.285663
    16  Cl  -0.009625
    17  H    0.161223
    18  H    0.165510
    19  H    0.191720
    20  H    0.132125
    21  H    0.160988
    22  H    0.176498
    23  H    0.192217
    24  H    0.363357
    25  H    0.382119
    26  H    0.167034
    27  H    0.199719
    28  H    0.239125
    29  H    0.237838
    30  H    0.234664
    31  H    0.216639
 Sum of Mulliken charges =   0.00000

 Dipole moment (field-independent basis, Debye):
    X=             -3.2131    Y=             -3.7206    Z=             -3.5625  Tot=              6.0711
 Quadrupole moment (field-independent basis, Debye-Ang):
   XX=           -105.1826   YY=            -99.7921   ZZ=           -105.3251
   XY=             11.0110   XZ=             11.2839   YZ=             -4.7072

 ESP charges:
               1
     1  C   -0.483836
     2  C    0.500997
     3  C   -0.532616
     4  N   -0.632174
     5  N   -0.440169
     6  C    0.849716
     7  O   -0.576131
     8  C   -0.246970
     9  O   -0.398314
    10  C    0.677394
    11  C   -0.552122
    12  C    0.144267
    13  C   -0.177787
    14  C    0.070162
    15  C   -0.496793
    16  Cl  -0.113916
    17  H    0.113695
    18  H    0.106426
    19  H    0.166185
    20  H   -0.010949
    21  H    0.117882
    22  H    0.140099
    23  H    0.156044
    24  H    0.381061
    25  H    0.315196
    26  H    0.093644
    27  H    0.138277
    28  H    0.233379
    29  H    0.118727
    30  H    0.134078
    31  H    0.204549
 Sum of ESP charges =   0.00000

 Normal termination of Gaussian 09 at Thu Jan 16 21:50:56 2014.
