 Gaussian 09, Revision D.01,
 Gaussian 09:  AM64L-G09RevD.01 24-Apr-2013

 -----------------------------------------
 # hf/gen pop=mk iop(6/33=2,6/41=5,6/42=2)
 -----------------------------------------

 -------
 na resp
 -------
 Symbolic Z-matrix:
 Charge =  0 Multiplicity = 1

                         Standard orientation:
 ---------------------------------------------------------------------
 Center     Atomic      Atomic             Coordinates (Angstroms)
 Number     Number       Type             X           Y           Z
 ---------------------------------------------------------------------
      1          6           0        0.633824    1.970528   -0.000123
      2          6           0        1.986815    1.544414   -0.000259
      3          6           0        1.930133    0.176375   -0.000077
      4          8           0        0.662705   -0.280711    0.000105
      5          6           0       -0.136934    0.831352    0.000040
      6          6           0       -1.603353    0.656280    0.000271
      7          8           0       -2.324965    1.632719    0.000268
      8          6           0       -2.097254   -0.789710    0.001446
      9         17           0       -3.879039   -0.908156   -0.000789
     10          7           0        2.983473   -0.798290   -0.000109
     11          8           0        4.128987   -0.342949   -0.000237
     12          8           0        2.666891   -1.984979    0.000044
     13          1           0        0.252748    2.981373   -0.000166
     14          1           0        2.885776    2.141546   -0.000453
     15          1           0       -1.712476   -1.313456   -0.878655
     16          1           0       -1.715031   -1.310850    0.884235
 ---------------------------------------------------------------------

 SCF Done:  E(RHF) =  -1042.73996041     A.U. after   15 cycles

 The electronic state is 1-A.
 Alpha  occ. eigenvalues -- -104.82441 -20.70345 -20.63428 -20.62933 -20.60087
 Alpha  occ. eigenvalues --  -15.88820 -11.39444 -11.38990 -11.35906 -11.32648
 Alpha  occ. eigenvalues --  -11.31062 -11.30049 -10.56315  -8.03177  -8.02822
 Alpha  occ. eigenvalues --   -8.02821  -1.62873  -1.53682  -1.43116  -1.42067
 Alpha  occ. eigenvalues --   -1.16498  -1.15603  -1.13340  -1.03202  -0.96655
 Alpha  occ. eigenvalues --   -0.87995  -0.84460  -0.81978  -0.79224  -0.75506
 Alpha  occ. eigenvalues --   -0.73897  -0.72877  -0.69751  -0.66342  -0.66065
 Alpha  occ. eigenvalues --   -0.64491  -0.64182  -0.62372  -0.56564  -0.55293
 Alpha  occ. eigenvalues --   -0.52242  -0.51551  -0.47617  -0.47115  -0.45739
 Alpha  occ. eigenvalues --   -0.45118  -0.45048  -0.38205
 Alpha virt. eigenvalues --    0.00679   0.08510   0.17655   0.19528   0.22299
 Alpha virt. eigenvalues --    0.23001   0.23585   0.27269   0.29670   0.30188
 Alpha virt. eigenvalues --    0.32700   0.35569   0.39453   0.42408   0.44743

 Mulliken charges:
               1
     1  C   -0.218901
     2  C   -0.196743
     3  C    0.634200
     4  O   -0.632548
     5  C    0.303531
     6  C    0.525631
     7  O   -0.508417
     8  C   -0.499336
     9  Cl  -0.022802
    10  N    0.460818
    11  O   -0.480975
    12  O   -0.454319
    13  H    0.282059
    14  H    0.290729
    15  H    0.258535
    16  H    0.258537
 Sum of Mulliken charges =   0.00000

 Dipole moment (field-independent basis, Debye):
    X=              0.9472    Y=              2.3571    Z=              0.0028  Tot=              2.5403
 Quadrupole moment (field-independent basis, Debye-Ang):
   XX=           -100.0389   YY=            -74.7654   ZZ=            -72.4823
   XY=             14.0510   XZ=             -0.0070   YZ=             -0.0038

 ESP charges:
               1
     1  C   -0.144379
     2  C   -0.196903
     3  C    0.197999
     4  O   -0.236484
     5  C   -0.028884
     6  C    0.782358
     7  O   -0.535957
     8  C   -0.404071
     9  Cl  -0.106959
    10  N    0.723851
    11  O   -0.450107
    12  O   -0.410819
    13  H    0.201978
    14  H    0.214048
    15  H    0.197152
    16  H    0.197176
 Sum of ESP charges =   0.00000

 Normal termination of Gaussian 09 at Thu Jan 16 21:47:15 2014.
