 Gaussian 09, Revision D.01,
 Gaussian 09:  AM64L-G09RevD.01 24-Apr-2013

 ------------------------------------------------------------------
 # hf/gen pseudo=read pop=(mk, readradii) iop(6/33=2,6/41=5,6/42=2)
 ------------------------------------------------------------------

 -------
 na resp
 -------
 Symbolic Z-matrix:
 Charge =  0 Multiplicity = 1

                         Standard orientation:
 ---------------------------------------------------------------------
 Center     Atomic      Atomic             Coordinates (Angstroms)
 Number     Number       Type             X           Y           Z
 ---------------------------------------------------------------------
      1          6           0       -1.880566    1.296037   -1.034371
      2          6           0       -2.054728   -0.085351   -0.386686
      3          1           0       -1.589298   -0.871992   -0.993407
      4          8           0       -1.326874    0.041586    0.842499
      5          6           0       -0.542431    1.215846    0.791469
      6          1           0       -0.941981    1.932203    1.537119
      7          8           0       -0.646590    1.758246   -0.501598
      8          6           0        0.906528    0.972152    1.170774
      9         53           0        1.956923   -0.420581   -0.164556
     10          6           0       -3.503986   -0.452813   -0.121444
     11          8           0       -3.555340   -1.804590    0.296993
     12          1           0       -1.791507    1.263096   -2.122521
     13          1           0       -2.704573    1.975121   -0.759624
     14          1           0        1.474824    1.901550    1.134877
     15          1           0        0.967972    0.526391    2.162768
     16          1           0       -3.904371    0.232347    0.642268
     17          1           0       -4.078639   -0.296782   -1.052124
     18          1           0       -4.467828   -2.008320    0.550481
 ---------------------------------------------------------------------

 SCF Done:  E(RHF) =  -430.285003140     A.U. after   12 cycles

 The electronic state is 1-A.
 Alpha  occ. eigenvalues --  -20.58331 -20.57443 -20.56682 -11.35489 -11.29500
 Alpha  occ. eigenvalues --  -11.29271 -11.28991 -11.28606  -1.45240  -1.36743
 Alpha  occ. eigenvalues --   -1.34213  -1.08697  -1.00918  -0.92902  -0.87018
 Alpha  occ. eigenvalues --   -0.82656  -0.79830  -0.72629  -0.71614  -0.68162
 Alpha  occ. eigenvalues --   -0.65917  -0.63453  -0.61726  -0.60392  -0.57116
 Alpha  occ. eigenvalues --   -0.56349  -0.53202  -0.51998  -0.49791  -0.45731
 Alpha  occ. eigenvalues --   -0.45339  -0.44540  -0.41552  -0.35085  -0.34751
 Alpha virt. eigenvalues --    0.11402   0.21700   0.23120   0.24746   0.26330
 Alpha virt. eigenvalues --    0.27438   0.29051   0.29933   0.31399   0.32371
 Alpha virt. eigenvalues --    0.33279   0.35424   0.39334   0.40769   0.42652

 Mulliken charges:
               1
     1  C   -0.024778
     2  C    0.157850
     3  H    0.208405
     4  O   -0.693121
     5  C    0.583612
     6  H    0.164038
     7  O   -0.669207
     8  C   -0.664309
     9  I    0.067800
    10  C    0.023636
    11  O   -0.767007
    12  H    0.199264
    13  H    0.162178
    14  H    0.247433
    15  H    0.251856
    16  H    0.155218
    17  H    0.142957
    18  H    0.454175
 Sum of Mulliken charges =   0.00000

 Dipole moment (field-independent basis, Debye):
    X=             -3.9395    Y=              2.1039    Z=              0.2780  Tot=              4.4747
 Quadrupole moment (field-independent basis, Debye-Ang):
   XX=            -53.0628   YY=            -70.9109   ZZ=            -64.9054
   XY=             -0.6868   XZ=              3.5207   YZ=              4.0753

 ESP charges:
               1
     1  C   -0.013418
     2  C    0.169049
     3  H    0.112505
     4  O   -0.432006
     5  C    0.654699
     6  H    0.025179
     7  O   -0.410848
     8  C   -0.809968
     9  I   -0.054536
    10  C    0.136393
    11  O   -0.649521
    12  H    0.111650
    13  H    0.058063
    14  H    0.301304
    15  H    0.311540
    16  H    0.041162
    17  H    0.015757
    18  H    0.432997
 Sum of ESP charges =   0.00000

 Normal termination of Gaussian 09 at Fri Jan 17 11:54:40 2014.
