 Gaussian 09, Revision D.01,
 Gaussian 09:  AM64L-G09RevD.01 24-Apr-2013

 -----------------------------------------
 # hf/gen pop=mk iop(6/33=2,6/41=5,6/42=2)
 -----------------------------------------

 -------
 na resp
 -------
 Symbolic Z-matrix:
 Charge =  0 Multiplicity = 1

                         Standard orientation:
 ---------------------------------------------------------------------
 Center     Atomic      Atomic             Coordinates (Angstroms)
 Number     Number       Type             X           Y           Z
 ---------------------------------------------------------------------
      1          6           0        6.301907   -0.964465    0.000100
      2          6           0        4.976490   -1.479545    0.000481
      3          6           0        4.010111   -0.502768    0.000042
      4         16           0        4.748379    1.088352   -0.000244
      5          6           0        6.339688    0.404354   -0.000612
      6          6           0        2.553479   -0.796125    0.000074
      7          8           0        2.132579   -1.938611    0.000165
      8          7           0        1.726943    0.322844    0.000134
      9          7           0        0.379770    0.191624    0.000180
     10          6           0       -0.305126    1.281190    0.000267
     11          6           0       -1.744294    1.293637    0.000187
     12          6           0       -2.636183    2.339046    0.000116
     13          6           0       -3.942919    1.768792    0.000290
     14          6           0       -3.745045    0.418603   -0.000007
     15          8           0       -2.429488    0.103490   -0.000018
     16         35           0       -4.952106   -1.001476   -0.000179
     17          1           0        7.192177   -1.583561    0.000226
     18          1           0        4.714524   -2.530721    0.000920
     19          1           0        7.204539    1.054483   -0.001100
     20          1           0        2.132354    1.258177    0.000262
     21          1           0        0.165071    2.274153    0.000280
     22          1           0       -2.384574    3.390887    0.000146
     23          1           0       -4.894826    2.278012    0.000436
 ---------------------------------------------------------------------

 SCF Done:  E(RHF) =  -3608.38437376     A.U. after   16 cycles

 The electronic state is 1-A.
 Alpha  occ. eigenvalues -- -489.86199 -91.98810 -64.40596 -58.57285 -58.57089
 Alpha  occ. eigenvalues --  -58.57088 -20.64794 -20.53266 -15.63702 -15.63274
 Alpha  occ. eigenvalues --  -11.37501 -11.35606 -11.31470 -11.30064 -11.28955
 Alpha  occ. eigenvalues --  -11.28134 -11.26146 -11.25692 -11.25622 -11.25181
 Alpha  occ. eigenvalues --   -9.68401  -9.00297  -7.50017  -7.49049  -7.49048
 Alpha  occ. eigenvalues --   -6.68486  -6.68390  -6.68228  -3.24359  -3.23889
 Alpha  occ. eigenvalues --   -3.23878  -3.22767  -3.22767  -1.48220  -1.39905
 Alpha  occ. eigenvalues --   -1.33588  -1.19021  -1.15140  -1.11052  -1.07720
 Alpha  occ. eigenvalues --   -1.01967  -1.00348  -0.98288  -0.89012  -0.84087
 Alpha  occ. eigenvalues --   -0.82668  -0.79452  -0.78276  -0.76653  -0.73038
 Alpha  occ. eigenvalues --   -0.70433  -0.68375  -0.66096  -0.64275  -0.61854
 Alpha  occ. eigenvalues --   -0.61450  -0.60202  -0.59044  -0.57991  -0.57123
 Alpha  occ. eigenvalues --   -0.54696  -0.54230  -0.53911  -0.50357  -0.49472
 Alpha  occ. eigenvalues --   -0.46459  -0.45843  -0.43286  -0.42917  -0.42171
 Alpha  occ. eigenvalues --   -0.38514  -0.36285  -0.34264  -0.29416
 Alpha virt. eigenvalues --    0.06709   0.09974   0.15237   0.17293   0.18762
 Alpha virt. eigenvalues --    0.20384   0.21242   0.23491   0.24391   0.26541
 Alpha virt. eigenvalues --    0.27082   0.28368   0.28597   0.29877   0.31642

 Mulliken charges:
               1
     1  C   -0.177456
     2  C   -0.128150
     3  C   -0.389269
     4  S    0.320457
     5  C   -0.418275
     6  C    0.893820
     7  O   -0.592936
     8  N   -0.712025
     9  N   -0.177926
    10  C    0.010312
    11  C    0.372987
    12  C   -0.256282
    13  C   -0.258579
    14  C    0.388257
    15  O   -0.608029
    16  Br  -0.082391
    17  H    0.227556
    18  H    0.263872
    19  H    0.249565
    20  H    0.402881
    21  H    0.197154
    22  H    0.232863
    23  H    0.241594
 Sum of Mulliken charges =   0.00000

 Dipole moment (field-independent basis, Debye):
    X=              2.8661    Y=              5.8119    Z=              0.0006  Tot=              6.4801
 Quadrupole moment (field-independent basis, Debye-Ang):
   XX=            -76.3462   YY=           -103.3495   ZZ=           -115.8852
   XY=             -2.5647   XZ=             -0.0012   YZ=             -0.0006

 ESP charges:
               1
     1  C   -0.341087
     2  C    0.217273
     3  C   -0.410206
     4  S   -0.040198
     5  C   -0.078952
     6  C    0.745478
     7  O   -0.572421
     8  N   -0.170517
     9  N   -0.317422
    10  C   -0.004022
    11  C    0.399249
    12  C   -0.495138
    13  C    0.074275
    14  C   -0.111714
    15  O   -0.147818
    16  Br   0.023489
    17  H    0.191430
    18  H    0.104084
    19  H    0.201719
    20  H    0.266985
    21  H    0.114982
    22  H    0.231726
    23  H    0.118805
 Sum of ESP charges =   0.00000

 Normal termination of Gaussian 09 at Thu Jan 16 22:39:56 2014.
