 Gaussian 09, Revision D.01,
 Gaussian 09:  AM64L-G09RevD.01 24-Apr-2013

 ------------------------------------------------------------------
 # hf/gen pseudo=read pop=(mk, readradii) iop(6/33=2,6/41=5,6/42=2)
 ------------------------------------------------------------------

 -------
 na resp
 -------
 Symbolic Z-matrix:
 Charge =  0 Multiplicity = 1

                         Standard orientation:
 ---------------------------------------------------------------------
 Center     Atomic      Atomic             Coordinates (Angstroms)
 Number     Number       Type             X           Y           Z
 ---------------------------------------------------------------------
      1          6           0       -6.119814   -0.272250   -0.573096
      2          6           0       -5.504098   -1.479245   -0.239387
      3          7           0       -4.211690   -1.564834    0.074482
      4          6           0       -3.526321   -0.404931    0.052164
      5          7           0       -4.001939    0.807812   -0.239440
      6          6           0       -5.300610    0.854532   -0.550917
      7          7           0       -2.189275   -0.562063    0.401219
      8          6           0       -1.157352    0.353762    0.403311
      9          7           0       -1.140651    1.505851   -0.132261
     10          6           0        0.088039    2.215399    0.169788
     11          6           0        1.237314    1.218129    0.542048
     12          1           0        1.887179    1.649275    1.306264
     13         16           0        0.334293   -0.201671    1.287060
     14          6           0        2.048100    0.841287   -0.690550
     15         53           0        3.766437   -0.474485   -0.261560
     16          1           0       -7.171378   -0.215138   -0.830294
     17          1           0       -6.063494   -2.413403   -0.222182
     18          1           0       -5.694802    1.841275   -0.789667
     19          1           0       -1.961240   -1.517468    0.643566
     20          1           0       -0.086352    2.896738    1.014718
     21          1           0        0.381438    2.833654   -0.687171
     22          1           0        1.453515    0.305769   -1.430223
     23          1           0        2.498605    1.726306   -1.143469
 ---------------------------------------------------------------------

 SCF Done:  E(RHF) =  -934.639336121     A.U. after   16 cycles

 The electronic state is 1-A.
 Alpha  occ. eigenvalues --  -91.95708 -15.61434 -15.57815 -15.57202 -15.55297
 Alpha  occ. eigenvalues --  -11.36847 -11.35705 -11.30584 -11.30354 -11.30063
 Alpha  occ. eigenvalues --  -11.29308 -11.27383 -11.24301  -8.97276  -6.65450
 Alpha  occ. eigenvalues --   -6.65340  -6.65127  -1.34812  -1.28538  -1.21867
 Alpha  occ. eigenvalues --   -1.20058  -1.09703  -1.06730  -0.99426  -0.96385
 Alpha  occ. eigenvalues --   -0.90396  -0.89113  -0.84751  -0.80251  -0.79225
 Alpha  occ. eigenvalues --   -0.74367  -0.69417  -0.67220  -0.66103  -0.65587
 Alpha  occ. eigenvalues --   -0.62787  -0.61684  -0.60663  -0.59448  -0.58696
 Alpha  occ. eigenvalues --   -0.56315  -0.53121  -0.52398  -0.49415  -0.47656
 Alpha  occ. eigenvalues --   -0.43729  -0.42876  -0.42412  -0.41837  -0.39734
 Alpha  occ. eigenvalues --   -0.36327  -0.35884  -0.35227  -0.33081
 Alpha virt. eigenvalues --    0.09914   0.10449   0.12075   0.15092   0.20402
 Alpha virt. eigenvalues --    0.22909   0.24037   0.24504   0.25522   0.26703
 Alpha virt. eigenvalues --    0.28763   0.29054   0.29672   0.30979   0.33314

 Mulliken charges:
               1
     1  C   -0.340078
     2  C    0.124057
     3  N   -0.610440
     4  C    0.851786
     5  N   -0.547609
     6  C    0.120145
     7  N   -0.920428
     8  C    0.430110
     9  N   -0.490538
    10  C   -0.129168
    11  C   -0.345056
    12  H    0.234442
    13  S    0.182092
    14  C   -0.618030
    15  I    0.058438
    16  H    0.222527
    17  H    0.225651
    18  H    0.226124
    19  H    0.431682
    20  H    0.198325
    21  H    0.188586
    22  H    0.259364
    23  H    0.248018
 Sum of Mulliken charges =   0.00000

 Dipole moment (field-independent basis, Debye):
    X=             -2.8837    Y=              0.9881    Z=             -0.4877  Tot=              3.0871
 Quadrupole moment (field-independent basis, Debye-Ang):
   XX=            -85.3084   YY=           -100.7053   ZZ=           -105.6753
   XY=              8.5250   XZ=              3.4724   YZ=              0.1004

 ESP charges:
               1
     1  C   -0.773122
     2  C    0.557490
     3  N   -0.896622
     4  C    1.336057
     5  N   -0.834162
     6  C    0.536010
     7  N   -0.998200
     8  C    0.748954
     9  N   -0.550258
    10  C    0.056635
    11  C   -0.011797
    12  H    0.175900
    13  S   -0.234437
    14  C   -0.596466
    15  I   -0.076270
    16  H    0.244765
    17  H    0.077594
    18  H    0.081077
    19  H    0.461170
    20  H    0.057305
    21  H    0.108463
    22  H    0.276063
    23  H    0.253848
 Sum of ESP charges =   0.00000

 Normal termination of Gaussian 09 at Fri Jan 17 11:56:47 2014.
