 Gaussian 09, Revision D.01,
 Gaussian 09:  AM64L-G09RevD.01 24-Apr-2013

 ------------------------------------------------------------------
 # hf/gen pseudo=read pop=(mk, readradii) iop(6/33=2,6/41=5,6/42=2)
 ------------------------------------------------------------------

 -------
 na resp
 -------
 Symbolic Z-matrix:
 Charge =  0 Multiplicity = 1

                         Standard orientation:
 ---------------------------------------------------------------------
 Center     Atomic      Atomic             Coordinates (Angstroms)
 Number     Number       Type             X           Y           Z
 ---------------------------------------------------------------------
      1          6           0       -1.351937    2.325583    0.421239
      2          6           0       -0.630931    0.987087    0.444359
      3          1           0       -0.286191    0.724205    1.445505
      4          6           0        0.548926    0.917416   -0.533915
      5          1           0        0.196004    1.006526   -1.570444
      6          8           0        1.418119    2.004521   -0.211708
      7          6           0        2.737341    1.486710   -0.075150
      8          6           0        2.501807    0.021852    0.292662
      9          1           0        2.335707   -0.089743    1.374244
     10          8           0        1.299985   -0.270733   -0.427671
     11          6           0        3.608543   -0.923595   -0.133541
     12          8           0        3.371994   -2.185784    0.463724
     13         53           0       -2.067823   -0.646201   -0.043242
     14          1           0       -1.743227    2.551238   -0.576349
     15          1           0       -2.185213    2.338288    1.128100
     16          1           0       -0.640923    3.112140    0.698634
     17          1           0        3.288580    1.577010   -1.023995
     18          1           0        3.257605    2.058306    0.698299
     19          1           0        3.612163   -0.977145   -1.232515
     20          1           0        4.575034   -0.499548    0.191791
     21          1           0        3.981790   -2.826991    0.069885
 ---------------------------------------------------------------------

 SCF Done:  E(RHF) =  -469.319867660     A.U. after   12 cycles

 The electronic state is 1-A.
 Alpha  occ. eigenvalues --  -20.58373 -20.57838 -20.56849 -11.35255 -11.29725
 Alpha  occ. eigenvalues --  -11.29625 -11.29447 -11.29255 -11.23021  -1.45168
 Alpha  occ. eigenvalues --   -1.36888  -1.34250  -1.09851  -1.04266  -0.94130
 Alpha  occ. eigenvalues --   -0.90628  -0.85356  -0.83474  -0.78795  -0.72796
 Alpha  occ. eigenvalues --   -0.71472  -0.68724  -0.64861  -0.63481  -0.61604
 Alpha  occ. eigenvalues --   -0.60219  -0.59506  -0.57322  -0.54555  -0.53228
 Alpha  occ. eigenvalues --   -0.52543  -0.52188  -0.49690  -0.46156  -0.45121
 Alpha  occ. eigenvalues --   -0.42926  -0.40994  -0.34790  -0.34431
 Alpha virt. eigenvalues --    0.11194   0.21650   0.22814   0.24455   0.25707
 Alpha virt. eigenvalues --    0.27612   0.27974   0.29506   0.30325   0.31539
 Alpha virt. eigenvalues --    0.31856   0.33423   0.33767   0.35319   0.39574

 Mulliken charges:
               1
     1  C   -0.466990
     2  C   -0.505059
     3  H    0.246163
     4  C    0.597521
     5  H    0.190618
     6  O   -0.699500
     7  C    0.007186
     8  C    0.133507
     9  H    0.191070
    10  O   -0.684921
    11  C    0.020521
    12  O   -0.767883
    13  I    0.031039
    14  H    0.185147
    15  H    0.194394
    16  H    0.207241
    17  H    0.166320
    18  H    0.186641
    19  H    0.165934
    20  H    0.144884
    21  H    0.456167
 Sum of Mulliken charges =   0.00000

 Dipole moment (field-independent basis, Debye):
    X=              4.2641    Y=              1.8007    Z=             -0.2039  Tot=              4.6332
 Quadrupole moment (field-independent basis, Debye-Ang):
   XX=            -59.3970   YY=            -75.8669   ZZ=            -74.1374
   XY=             -4.4103   XZ=             -2.8750   YZ=              3.6970

 ESP charges:
               1
     1  C   -0.325285
     2  C   -0.235596
     3  H    0.215307
     4  C    0.520990
     5  H    0.064827
     6  O   -0.426037
     7  C    0.017672
     8  C    0.317308
     9  H    0.044776
    10  O   -0.508428
    11  C    0.203684
    12  O   -0.682774
    13  I   -0.156766
    14  H    0.117473
    15  H    0.129463
    16  H    0.121184
    17  H    0.052410
    18  H    0.078911
    19  H    0.029881
    20  H   -0.020340
    21  H    0.441340
 Sum of ESP charges =   0.00000

 Normal termination of Gaussian 09 at Fri Jan 17 11:54:45 2014.
