 Gaussian 09, Revision D.01,
 Gaussian 09:  AM64L-G09RevD.01 24-Apr-2013

 ------------------------------------------------------------------
 # hf/gen pseudo=read pop=(mk, readradii) iop(6/33=2,6/41=5,6/42=2)
 ------------------------------------------------------------------

 -------
 na resp
 -------
 Symbolic Z-matrix:
 Charge =  0 Multiplicity = 1

                         Standard orientation:
 ---------------------------------------------------------------------
 Center     Atomic      Atomic             Coordinates (Angstroms)
 Number     Number       Type             X           Y           Z
 ---------------------------------------------------------------------
      1          6           0        6.840404   -1.130648    0.000182
      2          6           0        5.490979   -1.579528    0.000546
      3          6           0        4.574269   -0.555476    0.000036
      4         16           0        5.390167    0.996184   -0.000393
      5          6           0        6.945570    0.235168   -0.000591
      6          6           0        3.104834   -0.776779    0.000072
      7          8           0        2.628339   -1.897413    0.000199
      8          7           0        2.333792    0.381737    0.000147
      9          7           0        0.982764    0.316127    0.000215
     10          6           0        0.348723    1.435902    0.000318
     11          6           0       -1.089525    1.513907    0.000230
     12          6           0       -1.932071    2.599424    0.000137
     13          6           0       -3.263997    2.088607    0.000337
     14          6           0       -3.129904    0.729375    0.000042
     15          8           0       -1.827786    0.357877    0.000023
     16         53           0       -4.561180   -0.797853   -0.000141
     17          1           0        7.698990   -1.792939    0.000381
     18          1           0        5.176861   -2.616286    0.001043
     19          1           0        7.841571    0.841689   -0.001078
     20          1           0        2.784912    1.295933    0.000296
     21          1           0        0.864107    2.406233    0.000321
     22          1           0       -1.633368    3.638911    0.000152
     23          1           0       -4.189198    2.645270    0.000493
 ---------------------------------------------------------------------

 SCF Done:  E(RHF) =  -1049.94402520     A.U. after   17 cycles

 The electronic state is 1-A.
 Alpha  occ. eigenvalues --  -91.98780 -20.64488 -20.53223 -15.63644 -15.63171
 Alpha  occ. eigenvalues --  -11.37460 -11.34554 -11.31283 -11.29944 -11.28921
 Alpha  occ. eigenvalues --  -11.28094 -11.26110 -11.25595 -11.25427 -11.25064
 Alpha  occ. eigenvalues --   -9.00269  -6.68457  -6.68361  -6.68200  -1.47746
 Alpha  occ. eigenvalues --   -1.39845  -1.33527  -1.18985  -1.14964  -1.10470
 Alpha  occ. eigenvalues --   -1.04416  -1.01125  -1.00159  -0.92487  -0.87487
 Alpha  occ. eigenvalues --   -0.83753  -0.82119  -0.79088  -0.78093  -0.76501
 Alpha  occ. eigenvalues --   -0.72958  -0.70364  -0.67671  -0.65570  -0.64050
 Alpha  occ. eigenvalues --   -0.61764  -0.60806  -0.60137  -0.58750  -0.57523
 Alpha  occ. eigenvalues --   -0.56957  -0.54659  -0.54164  -0.50215  -0.49857
 Alpha  occ. eigenvalues --   -0.49390  -0.46258  -0.43220  -0.41928  -0.41859
 Alpha  occ. eigenvalues --   -0.38070  -0.37271  -0.36205  -0.34194  -0.29199
 Alpha virt. eigenvalues --    0.06794   0.10123   0.10812   0.15302   0.18993
 Alpha virt. eigenvalues --    0.20545   0.21297   0.23598   0.24422   0.26741
 Alpha virt. eigenvalues --    0.27049   0.28482   0.28640   0.29920   0.31706

 Mulliken charges:
               1
     1  C   -0.177650
     2  C   -0.128251
     3  C   -0.389250
     4  S    0.321068
     5  C   -0.418448
     6  C    0.893670
     7  O   -0.592977
     8  N   -0.711885
     9  N   -0.176594
    10  C    0.011053
    11  C    0.373262
    12  C   -0.257157
    13  C   -0.245645
    14  C   -0.028516
    15  O   -0.574244
    16  I    0.296385
    17  H    0.227413
    18  H    0.263810
    19  H    0.249486
    20  H    0.402648
    21  H    0.196580
    22  H    0.230176
    23  H    0.235065
 Sum of Mulliken charges =   0.00000

 Dipole moment (field-independent basis, Debye):
    X=              2.8149    Y=              5.4583    Z=              0.0007  Tot=              6.1414
 Quadrupole moment (field-independent basis, Debye-Ang):
   XX=            -72.3061   YY=           -103.2824   ZZ=           -118.3496
   XY=              1.2368   XZ=             -0.0003   YZ=             -0.0005

 ESP charges:
               1
     1  C   -0.341892
     2  C    0.207720
     3  C   -0.398719
     4  S   -0.040732
     5  C   -0.077547
     6  C    0.737541
     7  O   -0.572426
     8  N   -0.165912
     9  N   -0.313104
    10  C   -0.029327
    11  C    0.468357
    12  C   -0.587903
    13  C    0.262870
    14  C   -0.361434
    15  O   -0.106162
    16  I    0.103621
    17  H    0.192292
    18  H    0.107134
    19  H    0.201381
    20  H    0.262017
    21  H    0.123336
    22  H    0.240725
    23  H    0.088166
 Sum of ESP charges =   0.00000

 Normal termination of Gaussian 09 at Fri Jan 17 11:57:05 2014.
