 Gaussian 09, Revision D.01,
 Gaussian 09:  AM64L-G09RevD.01 24-Apr-2013

 ------------------------------------------------------------------
 # hf/gen pseudo=read pop=(mk, readradii) iop(6/33=2,6/41=5,6/42=2)
 ------------------------------------------------------------------

 -------
 na resp
 -------
 Symbolic Z-matrix:
 Charge =  0 Multiplicity = 1

                         Standard orientation:
 ---------------------------------------------------------------------
 Center     Atomic      Atomic             Coordinates (Angstroms)
 Number     Number       Type             X           Y           Z
 ---------------------------------------------------------------------
      1          6           0       -4.557118    1.190546    1.797974
      2          6           0       -3.769611    0.299019    0.887480
      3          6           0       -4.221352   -0.855761    0.177402
      4          6           0       -3.133775   -1.340568   -0.501774
      5          7           0       -2.092952   -0.467329   -0.197988
      6          7           0       -2.490508    0.531218    0.661537
      7          6           0       -0.751063   -0.583319   -0.610325
      8          8           0       -0.334674   -1.619382   -1.096232
      9          6           0        0.118948    0.609820   -0.447310
     10          6           0        1.500014    0.627115   -0.124027
     11          6           0        1.874383    1.951020   -0.225976
     12          7           0        0.763356    2.634673   -0.613715
     13          7           0       -0.309555    1.843446   -0.743906
     14          6           0        0.621939    4.067183   -0.814269
     15         53           0        2.783599   -0.937538    0.452373
     16          6           0       -3.021702   -2.524470   -1.408340
     17          1           0       -4.985545    0.625817    2.634903
     18          1           0       -3.911745    1.975029    2.201327
     19          1           0       -5.390179    1.665328    1.265107
     20          1           0       -5.218307   -1.275141    0.168977
     21          1           0        2.823406    2.437570   -0.057462
     22          1           0        0.176130    4.537694    0.067841
     23          1           0        1.606706    4.500487   -1.001519
     24          1           0       -0.024248    4.236414   -1.677335
     25          1           0       -2.357692   -3.288910   -0.994677
     26          1           0       -4.016267   -2.956720   -1.553755
     27          1           0       -2.612000   -2.250562   -2.385841
 ---------------------------------------------------------------------

 SCF Done:  E(RHF) =  -688.842873050     A.U. after   16 cycles

 The electronic state is 1-A.
 Alpha  occ. eigenvalues --  -20.55517 -15.66765 -15.64320 -15.61311 -15.58353
 Alpha  occ. eigenvalues --  -11.38237 -11.29348 -11.28924 -11.28669 -11.28280
 Alpha  occ. eigenvalues --  -11.28177 -11.26698 -11.22831 -11.22428 -11.21827
 Alpha  occ. eigenvalues --   -1.41621  -1.39925  -1.35393  -1.15105  -1.12719
 Alpha  occ. eigenvalues --   -1.08351  -1.07733  -0.98899  -0.97081  -0.95673
 Alpha  occ. eigenvalues --   -0.90359  -0.86082  -0.80579  -0.79268  -0.77394
 Alpha  occ. eigenvalues --   -0.73431  -0.70880  -0.67159  -0.66582  -0.64224
 Alpha  occ. eigenvalues --   -0.62783  -0.61281  -0.59635  -0.59038  -0.58314
 Alpha  occ. eigenvalues --   -0.57351  -0.56901  -0.56655  -0.55250  -0.54057
 Alpha  occ. eigenvalues --   -0.51875  -0.51651  -0.50521  -0.46730  -0.45325
 Alpha  occ. eigenvalues --   -0.44358  -0.41082  -0.36505  -0.36250  -0.35355
 Alpha  occ. eigenvalues --   -0.33713  -0.32460
 Alpha virt. eigenvalues --    0.10461   0.11977   0.15209   0.18770   0.22964
 Alpha virt. eigenvalues --    0.23302   0.26100   0.26276   0.26651   0.27269
 Alpha virt. eigenvalues --    0.28662   0.29642   0.30659   0.30919   0.32092

 Mulliken charges:
               1
     1  C   -0.542658
     2  C    0.344405
     3  C   -0.431930
     4  C    0.442616
     5  N   -0.615366
     6  N   -0.331626
     7  C    0.803365
     8  O   -0.572858
     9  C    0.240660
    10  C   -0.522888
    11  C    0.141262
    12  N   -0.401049
    13  N   -0.287593
    14  C   -0.280735
    15  I    0.275349
    16  C   -0.512597
    17  H    0.183584
    18  H    0.205734
    19  H    0.183507
    20  H    0.213884
    21  H    0.249550
    22  H    0.207054
    23  H    0.188242
    24  H    0.219140
    25  H    0.218248
    26  H    0.178556
    27  H    0.204145
 Sum of Mulliken charges =   0.00000

 Dipole moment (field-independent basis, Debye):
    X=             -0.6428    Y=              3.7070    Z=              0.1761  Tot=              3.7665
 Quadrupole moment (field-independent basis, Debye-Ang):
   XX=            -91.3567   YY=            -90.5252   ZZ=           -109.1846
   XY=             11.3579   XZ=             -0.2345   YZ=             -2.7397

 ESP charges:
               1
     1  C   -0.424465
     2  C    0.614047
     3  C   -0.677665
     4  C    0.368802
     5  N   -0.015799
     6  N   -0.557336
     7  C    0.552905
     8  O   -0.536758
     9  C    0.494259
    10  C   -0.494618
    11  C   -0.142805
    12  N    0.434403
    13  N   -0.572351
    14  C   -0.387208
    15  I    0.068733
    16  C   -0.439788
    17  H    0.113857
    18  H    0.133627
    19  H    0.115325
    20  H    0.258178
    21  H    0.213147
    22  H    0.159607
    23  H    0.123831
    24  H    0.167074
    25  H    0.153496
    26  H    0.130322
    27  H    0.147178
 Sum of ESP charges =   0.00000

 Normal termination of Gaussian 09 at Fri Jan 17 11:57:46 2014.
