 Gaussian 09, Revision D.01,
 Gaussian 09:  AM64L-G09RevD.01 24-Apr-2013

 -----------------------------------------
 # hf/gen pop=mk iop(6/33=2,6/41=5,6/42=2)
 -----------------------------------------

 -------
 na resp
 -------
 Symbolic Z-matrix:
 Charge =  0 Multiplicity = 1

                         Standard orientation:
 ---------------------------------------------------------------------
 Center     Atomic      Atomic             Coordinates (Angstroms)
 Number     Number       Type             X           Y           Z
 ---------------------------------------------------------------------
      1          6           0       -2.549799   -1.614197   -0.902855
      2          6           0       -3.607312   -1.501959    0.004435
      3          6           0       -3.576347   -0.509236    0.983378
      4          6           0       -2.492420    0.367568    1.051832
      5          6           0       -1.427884    0.257657    0.148561
      6          6           0       -1.464767   -0.743215   -0.833744
      7          6           0       -0.264530    1.211341    0.278920
      8         17           0       -0.020833    2.211020   -1.245523
      9          6           0        1.063465    0.536357    0.653187
     10          8           0        1.534791    0.787415    1.770045
     11          7           0        1.572204   -0.310056   -0.296214
     12          6           0        2.733796   -0.870274   -0.099417
     13          8           0        3.188609   -1.635986   -1.109774
     14          7           0        3.499390   -0.777078    1.010093
     15          1           0       -0.464688    1.940853    1.062171
     16          1           0       -4.451671   -2.183758   -0.054885
     17          1           0       -4.395431   -0.411449    1.690828
     18          1           0       -2.473498    1.144264    1.812602
     19          1           0       -0.639079   -0.831745   -1.530600
     20          1           0       -2.571036   -2.384669   -1.669108
     21          1           0        4.489119   -0.980309    0.988021
     22          1           0        3.966146   -2.144935   -0.827806
     23          1           0        3.120734   -0.141343    1.717573
 ---------------------------------------------------------------------

 SCF Done:  E(RHF) =  -1064.16342997     A.U. after   16 cycles

 The electronic state is 1-A.
 Alpha  occ. eigenvalues -- -104.79531 -20.64139 -20.55068 -15.61535 -15.54816
 Alpha  occ. eigenvalues --  -11.42786 -11.36813 -11.30288 -11.24610 -11.23699
 Alpha  occ. eigenvalues --  -11.23435 -11.23171 -11.23007 -11.22859 -10.53356
 Alpha  occ. eigenvalues --   -8.00201  -7.99881  -7.99870  -1.47264  -1.39347
 Alpha  occ. eigenvalues --   -1.27170  -1.20190  -1.15869  -1.11388  -1.02304
 Alpha  occ. eigenvalues --   -1.00935  -0.95144  -0.89584  -0.82468  -0.81661
 Alpha  occ. eigenvalues --   -0.79627  -0.77434  -0.72416  -0.70122  -0.66899
 Alpha  occ. eigenvalues --   -0.65793  -0.64485  -0.63762  -0.61015  -0.60581
 Alpha  occ. eigenvalues --   -0.58686  -0.58090  -0.56101  -0.52964  -0.50750
 Alpha  occ. eigenvalues --   -0.49535  -0.48904  -0.48248  -0.46642  -0.43845
 Alpha  occ. eigenvalues --   -0.42563  -0.41208  -0.39305  -0.33031  -0.32458
 Alpha virt. eigenvalues --    0.10234   0.14022   0.15131   0.17132   0.21082
 Alpha virt. eigenvalues --    0.23664   0.24398   0.26753   0.28016   0.30731
 Alpha virt. eigenvalues --    0.31490   0.31960   0.34434   0.34967   0.36559

 Mulliken charges:
               1
     1  C   -0.209296
     2  C   -0.195332
     3  C   -0.205442
     4  C   -0.209302
     5  C    0.021757
     6  C   -0.180771
     7  C   -0.365648
     8  Cl  -0.077029
     9  C    0.753178
    10  O   -0.658419
    11  N   -0.668498
    12  C    0.986583
    13  O   -0.730512
    14  N   -0.975338
    15  H    0.263496
    16  H    0.205357
    17  H    0.205505
    18  H    0.210460
    19  H    0.260429
    20  H    0.206278
    21  H    0.396827
    22  H    0.472520
    23  H    0.493197
 Sum of Mulliken charges =   0.00000

 Dipole moment (field-independent basis, Debye):
    X=              3.7973    Y=             -3.5115    Z=              1.6132  Tot=              5.4178
 Quadrupole moment (field-independent basis, Debye-Ang):
   XX=            -53.0982   YY=            -86.6850   ZZ=            -93.5053
   XY=             -8.6394   XZ=             -0.2975   YZ=              3.6327

 ESP charges:
               1
     1  C   -0.142756
     2  C   -0.138198
     3  C   -0.172672
     4  C   -0.202026
     5  C    0.331878
     6  C   -0.220310
     7  C   -0.562755
     8  Cl  -0.125623
     9  C    0.982822
    10  O   -0.684547
    11  N   -0.817887
    12  C    1.025903
    13  O   -0.629725
    14  N   -1.100613
    15  H    0.257957
    16  H    0.143691
    17  H    0.152980
    18  H    0.146953
    19  H    0.189133
    20  H    0.143932
    21  H    0.443211
    22  H    0.460487
    23  H    0.518166
 Sum of ESP charges =   0.00000

 Normal termination of Gaussian 09 at Thu Jan 16 21:49:18 2014.
