 Gaussian 09, Revision D.01,
 Gaussian 09:  AM64L-G09RevD.01 24-Apr-2013

 -----------------------------------------
 # hf/gen pop=mk iop(6/33=2,6/41=5,6/42=2)
 -----------------------------------------

 -------
 na resp
 -------
 Symbolic Z-matrix:
 Charge =  0 Multiplicity = 1

                         Standard orientation:
 ---------------------------------------------------------------------
 Center     Atomic      Atomic             Coordinates (Angstroms)
 Number     Number       Type             X           Y           Z
 ---------------------------------------------------------------------
      1          6           0        1.698989    1.193078   -0.478282
      2          6           0        3.071100    0.966246   -0.396313
      3          6           0        3.537842   -0.251490    0.094958
      4          6           0        2.651698   -1.242466    0.512780
      5          6           0        1.280129   -1.008926    0.443064
      6          6           0        0.801147    0.206750   -0.057061
      7          7           0       -0.607909    0.432357   -0.139406
      8          6           0       -1.266136    1.626074    0.183006
      9          7           0       -0.677276    2.681562    0.575449
     10          6           0       -2.754632    1.365761   -0.034032
     11          7           0       -2.767134    0.033373   -0.604344
     12          6           0       -1.512912   -0.552767   -0.584481
     13          8           0       -1.254470   -1.695255   -0.905279
     14          6           0       -3.954421   -0.771714   -0.776668
     15          6           0       -4.699026   -0.963626    0.485319
     16          7           0       -5.273881   -1.067636    1.487952
     17         17           0        5.269486   -0.540233    0.191701
     18          1           0        1.329345    2.140697   -0.847224
     19          1           0        3.771584    1.729962   -0.716044
     20          1           0        3.027297   -2.185230    0.895198
     21          1           0        0.586207   -1.776254    0.761709
     22          1           0       -1.357228    3.419699    0.768563
     23          1           0       -3.189636    2.109857   -0.713283
     24          1           0       -3.296856    1.408613    0.921507
     25          1           0       -4.628347   -0.318626   -1.514547
     26          1           0       -3.627121   -1.741836   -1.163853
 ---------------------------------------------------------------------

 SCF Done:  E(RHF) =  -1173.93745248     A.U. after   17 cycles

 The electronic state is 1-A.
 Alpha  occ. eigenvalues -- -104.81965 -20.56318 -15.64326 -15.63711 -15.60549
 Alpha  occ. eigenvalues --  -15.56968 -11.42437 -11.36494 -11.34454 -11.32175
 Alpha  occ. eigenvalues --  -11.30622 -11.30096 -11.29949 -11.25303 -11.25299
 Alpha  occ. eigenvalues --  -11.25174 -11.25148 -10.55807  -8.02665  -8.02334
 Alpha  occ. eigenvalues --   -8.02330  -1.44175  -1.34720  -1.28522  -1.23489
 Alpha  occ. eigenvalues --   -1.21588  -1.18332  -1.11756  -1.06802  -1.03473
 Alpha  occ. eigenvalues --   -1.00199  -0.98934  -0.87614  -0.86433  -0.83815
 Alpha  occ. eigenvalues --   -0.79314  -0.75322  -0.73879  -0.70746  -0.70041
 Alpha  occ. eigenvalues --   -0.67661  -0.65883  -0.65658  -0.64958  -0.64321
 Alpha  occ. eigenvalues --   -0.61988  -0.60946  -0.60808  -0.59677  -0.57604
 Alpha  occ. eigenvalues --   -0.54938  -0.53389  -0.52895  -0.51972  -0.48898
 Alpha  occ. eigenvalues --   -0.47911  -0.47425  -0.46759  -0.45370  -0.44830
 Alpha  occ. eigenvalues --   -0.43287  -0.40342  -0.34952  -0.32392
 Alpha virt. eigenvalues --    0.11579   0.12858   0.14267   0.16611   0.17884
 Alpha virt. eigenvalues --    0.19450   0.21082   0.22377   0.22808   0.25639
 Alpha virt. eigenvalues --    0.27281   0.28747   0.29448   0.29836   0.31370

 Mulliken charges:
               1
     1  C   -0.173400
     2  C   -0.194627
     3  C   -0.134832
     4  C   -0.193666
     5  C   -0.185758
     6  C    0.319267
     7  N   -0.910552
     8  C    0.598701
     9  N   -0.705202
    10  C   -0.157482
    11  N   -0.756801
    12  C    1.110449
    13  O   -0.626129
    14  C   -0.166180
    15  C    0.252608
    16  N   -0.387935
    17  Cl  -0.001280
    18  H    0.253279
    19  H    0.236148
    20  H    0.237887
    21  H    0.252598
    22  H    0.341007
    23  H    0.220207
    24  H    0.234913
    25  H    0.244074
    26  H    0.292709
 Sum of Mulliken charges =   0.00000

 Dipole moment (field-independent basis, Debye):
    X=             -3.2504    Y=              3.1104    Z=             -2.4744  Tot=              5.1344
 Quadrupole moment (field-independent basis, Debye-Ang):
   XX=           -116.0063   YY=           -102.1713   ZZ=           -109.9280
   XY=            -10.5489   XZ=             14.0103   YZ=             -2.9653

 ESP charges:
               1
     1  C   -0.370450
     2  C    0.030266
     3  C   -0.072278
     4  C    0.016411
     5  C   -0.356848
     6  C    0.378833
     7  N   -0.340049
     8  C    0.491880
     9  N   -0.755090
    10  C   -0.120720
    11  N   -0.229308
    12  C    0.665081
    13  O   -0.561005
    14  C   -0.209829
    15  C    0.423941
    16  N   -0.475898
    17  Cl  -0.114974
    18  H    0.216224
    19  H    0.125020
    20  H    0.128337
    21  H    0.219766
    22  H    0.352756
    23  H    0.103533
    24  H    0.127884
    25  H    0.151364
    26  H    0.175153
 Sum of ESP charges =   0.00000

 Normal termination of Gaussian 09 at Thu Jan 16 21:51:06 2014.
