 Gaussian 09, Revision D.01,
 Gaussian 09:  AM64L-G09RevD.01 24-Apr-2013

 -----------------------------------------
 # hf/gen pop=mk iop(6/33=2,6/41=5,6/42=2)
 -----------------------------------------

 -------
 na resp
 -------
 Symbolic Z-matrix:
 Charge =  0 Multiplicity = 1

                         Standard orientation:
 ---------------------------------------------------------------------
 Center     Atomic      Atomic             Coordinates (Angstroms)
 Number     Number       Type             X           Y           Z
 ---------------------------------------------------------------------
      1          6           0        4.917456    1.209074   -0.062899
      2          6           0        3.433792    0.932718   -0.058102
      3          6           0        2.543755    2.013095   -0.157832
      4          6           0        1.159338    1.877802   -0.161375
      5          6           0        0.593460    0.597898   -0.056712
      6          6           0        1.441470   -0.504719    0.048521
      7          6           0        2.825055   -0.333758    0.045227
      8          7           0        3.616912   -1.574336    0.158429
      9          8           0        3.007922   -2.630817    0.334685
     10          8           0        4.842285   -1.497092    0.069102
     11          7           0       -0.793613    0.350213   -0.047710
     12          6           0       -1.810742    1.251322   -0.155787
     13          8           0       -1.678323    2.463350   -0.272878
     14          6           0       -3.253030    0.722495   -0.080295
     15          1           0       -3.771373    1.093923   -0.964264
     16          6           0       -3.943143    1.189320    1.198302
     17         35           0       -3.424155   -1.266945   -0.234858
     18          1           0        5.414267    0.740437   -0.917188
     19          1           0        5.085808    2.289353   -0.107365
     20          1           0        5.409270    0.813075    0.830073
     21          1           0        2.962357    3.012491   -0.236886
     22          1           0        0.516688    2.743143   -0.243739
     23          1           0        1.050008   -1.511365    0.135963
     24          1           0       -1.071749   -0.623068    0.015536
     25          1           0       -3.868938    2.280117    1.254463
     26          1           0       -4.997368    0.902029    1.193934
     27          1           0       -3.466170    0.756804    2.082922
 ---------------------------------------------------------------------

 SCF Done:  E(RHF) =  -3288.05418645     A.U. after   17 cycles

 The electronic state is 1-A.
 Alpha  occ. eigenvalues -- -489.85737 -64.40179 -58.56826 -58.56679 -58.56668
 Alpha  occ. eigenvalues --  -20.60686 -20.60409 -20.56144 -15.85717 -15.63238
 Alpha  occ. eigenvalues --  -11.39718 -11.33558 -11.31628 -11.31421 -11.28475
 Alpha  occ. eigenvalues --  -11.27435 -11.26363 -11.26041 -11.25420 -11.23423
 Alpha  occ. eigenvalues --   -9.67935  -7.49445  -7.48672  -7.48619  -3.23732
 Alpha  occ. eigenvalues --   -3.23385  -3.23333  -3.22432  -3.22431  -1.59876
 Alpha  occ. eigenvalues --   -1.41598  -1.39216  -1.28542  -1.19256  -1.11909
 Alpha  occ. eigenvalues --   -1.08606  -1.06790  -0.98723  -0.98587  -0.94053
 Alpha  occ. eigenvalues --   -0.90479  -0.85513  -0.84771  -0.80061  -0.76762
 Alpha  occ. eigenvalues --   -0.73205  -0.71602  -0.71310  -0.68449  -0.67567
 Alpha  occ. eigenvalues --   -0.66184  -0.65070  -0.62791  -0.61628  -0.61196
 Alpha  occ. eigenvalues --   -0.58619  -0.57198  -0.56411  -0.55805  -0.54567
 Alpha  occ. eigenvalues --   -0.53481  -0.52190  -0.50632  -0.48954  -0.48163
 Alpha  occ. eigenvalues --   -0.46100  -0.45654  -0.44735  -0.42540  -0.42138
 Alpha  occ. eigenvalues --   -0.37316  -0.32911
 Alpha virt. eigenvalues --    0.04791   0.10569   0.12997   0.15324   0.18952
 Alpha virt. eigenvalues --    0.22451   0.23584   0.24340   0.26617   0.26750
 Alpha virt. eigenvalues --    0.29338   0.29808   0.30626   0.31420   0.33031

 Mulliken charges:
               1
     1  C   -0.489098
     2  C    0.075435
     3  C   -0.247064
     4  C   -0.198256
     5  C    0.373487
     6  C   -0.249646
     7  C    0.153101
     8  N    0.526833
     9  O   -0.498588
    10  O   -0.489501
    11  N   -0.965388
    12  C    0.825999
    13  O   -0.626094
    14  C   -0.239626
    15  H    0.267886
    16  C   -0.494325
    17  Br  -0.189420
    18  H    0.209533
    19  H    0.173735
    20  H    0.206581
    21  H    0.223722
    22  H    0.300552
    23  H    0.283306
    24  H    0.444965
    25  H    0.220611
    26  H    0.204824
    27  H    0.196434
 Sum of Mulliken charges =   0.00000

 Dipole moment (field-independent basis, Debye):
    X=             -2.8852    Y=              2.9324    Z=              0.3574  Tot=              4.1293
 Quadrupole moment (field-independent basis, Debye-Ang):
   XX=           -109.1890   YY=           -117.3589   ZZ=           -106.1422
   XY=             14.6720   XZ=             -3.2617   YZ=              1.7781

 ESP charges:
               1
     1  C   -0.385053
     2  C    0.181358
     3  C   -0.260952
     4  C   -0.239805
     5  C    0.408908
     6  C   -0.443043
     7  C    0.005104
     8  N    0.761748
     9  O   -0.465558
    10  O   -0.448729
    11  N   -0.533733
    12  C    0.686091
    13  O   -0.574391
    14  C   -0.131552
    15  H    0.150366
    16  C   -0.128784
    17  Br  -0.148413
    18  H    0.142480
    19  H    0.098966
    20  H    0.144093
    21  H    0.191610
    22  H    0.223157
    23  H    0.271967
    24  H    0.264777
    25  H    0.086536
    26  H    0.072975
    27  H    0.069877
 Sum of ESP charges =   0.00000

 Normal termination of Gaussian 09 at Thu Jan 16 22:40:59 2014.
