 Gaussian 09, Revision D.01,
 Gaussian 09:  AM64L-G09RevD.01 24-Apr-2013

 -----------------------------------------
 # hf/gen pop=mk iop(6/33=2,6/41=5,6/42=2)
 -----------------------------------------

 -------
 na resp
 -------
 Symbolic Z-matrix:
 Charge =  0 Multiplicity = 1

                         Standard orientation:
 ---------------------------------------------------------------------
 Center     Atomic      Atomic             Coordinates (Angstroms)
 Number     Number       Type             X           Y           Z
 ---------------------------------------------------------------------
      1          6           0       -0.967420    2.468519    1.427681
      2          6           0       -1.049381    0.935676    1.360200
      3          6           0       -0.812657    0.353754   -0.050975
      4          6           0       -1.797165    0.823389   -1.130956
      5          6           0       -3.282032    0.667795   -0.796218
      6          6           0        0.643816    0.657718   -0.495186
      7          8           0        0.863938    1.645421   -1.166297
      8          7           0        1.622202   -0.190966   -0.007929
      9          6           0        3.018254    0.040570   -0.051266
     10          8           0        3.532533    1.122017   -0.226893
     11          7           0        3.726695   -1.120112    0.218663
     12         35           0       -1.062462   -1.665949    0.146012
     13          1           0       -1.090131    2.791276    2.467030
     14          1           0       -0.006137    2.843714    1.065448
     15          1           0       -1.757099    2.943785    0.836662
     16          1           0       -2.030062    0.597625    1.709377
     17          1           0       -0.311490    0.498619    2.042004
     18          1           0       -1.559620    1.874117   -1.326610
     19          1           0       -1.565841    0.287155   -2.057736
     20          1           0       -3.887491    0.998997   -1.646387
     21          1           0       -3.536493   -0.375911   -0.586665
     22          1           0       -3.575699    1.270828    0.069799
     23          1           0        1.297103   -1.048966    0.422594
     24          1           0        3.350445   -2.004271   -0.100056
     25          1           0        4.724133   -1.015229    0.084808
 ---------------------------------------------------------------------

 SCF Done:  E(RHF) =  -3100.89414666     A.U. after   16 cycles

 The electronic state is 1-A.
 Alpha  occ. eigenvalues -- -489.84520 -64.38923 -58.55575 -58.55437 -58.55423
 Alpha  occ. eigenvalues --  -20.55791 -20.53885 -15.61994 -15.59658 -11.40484
 Alpha  occ. eigenvalues --  -11.38756 -11.33614 -11.25447 -11.24388 -11.22675
 Alpha  occ. eigenvalues --  -11.22533  -9.66643  -7.48115  -7.47398  -7.47354
 Alpha  occ. eigenvalues --   -3.22393  -3.22072  -3.22029  -3.21186  -3.21184
 Alpha  occ. eigenvalues --   -1.42177  -1.39425  -1.26358  -1.20710  -1.13655
 Alpha  occ. eigenvalues --   -1.03505  -1.00549  -0.94368  -0.89376  -0.87293
 Alpha  occ. eigenvalues --   -0.79911  -0.78226  -0.74788  -0.69918  -0.67490
 Alpha  occ. eigenvalues --   -0.65315  -0.64924  -0.63296  -0.61570  -0.60658
 Alpha  occ. eigenvalues --   -0.58261  -0.57586  -0.55064  -0.53897  -0.52459
 Alpha  occ. eigenvalues --   -0.51934  -0.51157  -0.48805  -0.47436  -0.45596
 Alpha  occ. eigenvalues --   -0.43476  -0.43287  -0.42623  -0.41617  -0.40834
 Alpha virt. eigenvalues --    0.11361   0.15929   0.19953   0.21630   0.23560
 Alpha virt. eigenvalues --    0.26408   0.27198   0.27901   0.28174   0.29637
 Alpha virt. eigenvalues --    0.30167   0.31316   0.32357   0.32832   0.34791

 Mulliken charges:
               1
     1  C   -0.517906
     2  C   -0.308031
     3  C   -0.132410
     4  C   -0.308290
     5  C   -0.510565
     6  C    0.863444
     7  O   -0.558915
     8  N   -0.953388
     9  C    1.008741
    10  O   -0.574843
    11  N   -0.948322
    12  Br  -0.220137
    13  H    0.179694
    14  H    0.211394
    15  H    0.175501
    16  H    0.205232
    17  H    0.193485
    18  H    0.225979
    19  H    0.197456
    20  H    0.181224
    21  H    0.190355
    22  H    0.168145
    23  H    0.435961
    24  H    0.388820
    25  H    0.407373
 Sum of Mulliken charges =   0.00000

 Dipole moment (field-independent basis, Debye):
    X=             -1.6074    Y=             -3.5197    Z=              1.3482  Tot=              4.0975
 Quadrupole moment (field-independent basis, Debye-Ang):
   XX=            -83.2961   YY=            -88.5963   ZZ=            -86.6429
   XY=            -19.5672   XZ=              1.1748   YZ=              5.6158

 ESP charges:
               1
     1  C   -0.332364
     2  C    0.306130
     3  C   -0.355310
     4  C    0.153738
     5  C   -0.341642
     6  C    0.722048
     7  O   -0.523849
     8  N   -0.566434
     9  C    0.870338
    10  O   -0.565094
    11  N   -0.967913
    12  Br  -0.162355
    13  H    0.074361
    14  H    0.121779
    15  H    0.093438
    16  H   -0.006186
    17  H   -0.022988
    18  H    0.049666
    19  H    0.038266
    20  H    0.090915
    21  H    0.103309
    22  H    0.101396
    23  H    0.310728
    24  H    0.390803
    25  H    0.417217
 Sum of ESP charges =   0.00000

 Normal termination of Gaussian 09 at Thu Jan 16 22:39:23 2014.
