 Gaussian 09, Revision D.01,
 Gaussian 09:  AM64L-G09RevD.01 24-Apr-2013

 -----------------------------------------
 # hf/gen pop=mk iop(6/33=2,6/41=5,6/42=2)
 -----------------------------------------

 -------
 na resp
 -------
 Symbolic Z-matrix:
 Charge =  0 Multiplicity = 1

                         Standard orientation:
 ---------------------------------------------------------------------
 Center     Atomic      Atomic             Coordinates (Angstroms)
 Number     Number       Type             X           Y           Z
 ---------------------------------------------------------------------
      1          7           0        3.333434   -1.847115   -0.000821
      2          7           0        3.244766   -0.469307   -0.000075
      3          6           0        4.507700    0.034005    0.000529
      4          7           0        5.361201   -0.980738    0.000097
      5          7           0        4.591493   -2.106599   -0.000800
      6          7           0        2.093527    0.266470   -0.000045
      7          6           0        0.970370   -0.380994   -0.000112
      8          6           0       -0.306236    0.305831   -0.000157
      9          6           0       -0.420151    1.721605   -0.000452
     10          6           0       -1.690199    2.313203   -0.000496
     11          6           0       -2.835407    1.528301   -0.000254
     12          6           0       -2.725551    0.132252    0.000009
     13          6           0       -1.481693   -0.473534    0.000051
     14          8           0        0.654708    2.533957   -0.000704
     15         35           0       -4.306483   -0.938356    0.000293
     16          7           0        4.811033    1.348870    0.001391
     17          1           0       -3.815370    1.993317   -0.000268
     18          1           0       -1.754638    3.396285   -0.000730
     19          1           0       -1.402340   -1.556104    0.000244
     20          1           0        0.965325   -1.470887   -0.000102
     21          1           0        4.093821    2.054405    0.002139
     22          1           0        5.781053    1.619549    0.001939
     23          1           0        1.460209    1.969159   -0.000773
 ---------------------------------------------------------------------

 SCF Done:  E(RHF) =  -3278.05215078     A.U. after   17 cycles

 The electronic state is 1-A.
 Alpha  occ. eigenvalues -- -489.85501 -64.39873 -58.56559 -58.56381 -58.56371
 Alpha  occ. eigenvalues --  -20.60899 -15.70133 -15.66224 -15.65735 -15.65620
 Alpha  occ. eigenvalues --  -15.61544 -15.58618 -11.38172 -11.34670 -11.34054
 Alpha  occ. eigenvalues --  -11.31141 -11.28750 -11.28323 -11.27998 -11.25992
 Alpha  occ. eigenvalues --   -9.67627  -7.49200  -7.48314  -7.48295  -3.23522
 Alpha  occ. eigenvalues --   -3.23098  -3.23082  -3.22051  -3.22051  -1.49654
 Alpha  occ. eigenvalues --   -1.43043  -1.35266  -1.28212  -1.20308  -1.18093
 Alpha  occ. eigenvalues --   -1.14989  -1.07666  -1.06607  -0.97626  -0.95203
 Alpha  occ. eigenvalues --   -0.90271  -0.86144  -0.85606  -0.81800  -0.79538
 Alpha  occ. eigenvalues --   -0.74088  -0.72475  -0.71125  -0.70163  -0.68800
 Alpha  occ. eigenvalues --   -0.67456  -0.64325  -0.62818  -0.61766  -0.59977
 Alpha  occ. eigenvalues --   -0.57624  -0.55913  -0.55677  -0.53025  -0.52526
 Alpha  occ. eigenvalues --   -0.51623  -0.51063  -0.46378  -0.44990  -0.44829
 Alpha  occ. eigenvalues --   -0.42537  -0.41919  -0.37151  -0.35265  -0.32329
 Alpha virt. eigenvalues --    0.04437   0.11769   0.14459   0.15194   0.18537
 Alpha virt. eigenvalues --    0.19769   0.22999   0.24003   0.24263   0.25708
 Alpha virt. eigenvalues --    0.29345   0.30678   0.33120   0.34657   0.35521

 Mulliken charges:
               1
     1  N   -0.066991
     2  N   -0.389157
     3  C    1.048566
     4  N   -0.484035
     5  N   -0.030359
     6  N   -0.475681
     7  C    0.201994
     8  C   -0.133529
     9  C    0.480120
    10  C   -0.257794
    11  C   -0.149834
    12  C   -0.032057
    13  C   -0.171126
    14  O   -0.830517
    15  Br  -0.127751
    16  N   -1.007420
    17  H    0.248865
    18  H    0.242190
    19  H    0.252687
    20  H    0.284611
    21  H    0.427668
    22  H    0.430589
    23  H    0.538960
 Sum of Mulliken charges =   0.00000

 Dipole moment (field-independent basis, Debye):
    X=             -1.9149    Y=              4.5230    Z=              0.0041  Tot=              4.9116
 Quadrupole moment (field-independent basis, Debye-Ang):
   XX=           -119.0587   YY=           -105.8486   ZZ=           -107.7121
   XY=             20.7095   XZ=              0.0210   YZ=              0.0034

 ESP charges:
               1
     1  N   -0.314149
     2  N    0.440142
     3  C    0.862757
     4  N   -0.529955
     5  N   -0.048222
     6  N   -0.731957
     7  C    0.541688
     8  C   -0.434325
     9  C    0.694966
    10  C   -0.548068
    11  C    0.218706
    12  C   -0.296842
    13  C    0.074610
    14  O   -0.661974
    15  Br  -0.053601
    16  N   -1.259221
    17  H    0.108419
    18  H    0.244391
    19  H    0.146890
    20  H    0.040175
    21  H    0.527155
    22  H    0.523950
    23  H    0.454466
 Sum of ESP charges =   0.00000

 Normal termination of Gaussian 09 at Thu Jan 16 22:40:31 2014.
