 Gaussian 09, Revision D.01,
 Gaussian 09:  AM64L-G09RevD.01 24-Apr-2013

 -----------------------------------------
 # hf/gen pop=mk iop(6/33=2,6/41=5,6/42=2)
 -----------------------------------------

 -------
 na resp
 -------
 Symbolic Z-matrix:
 Charge =  0 Multiplicity = 1

                         Standard orientation:
 ---------------------------------------------------------------------
 Center     Atomic      Atomic             Coordinates (Angstroms)
 Number     Number       Type             X           Y           Z
 ---------------------------------------------------------------------
      1          6           0        1.114472    2.449890    0.065104
      2          6           0        1.412588    0.977778    0.033747
      3          6           0        0.538253   -0.044993    0.316744
      4         16           0        1.364551   -1.578298    0.132774
      5          6           0        2.810630   -0.705662   -0.303021
      6          7           0        2.694969    0.586553   -0.311065
      7          6           0       -0.918577    0.016963    0.687552
      8          6           0       -1.818286   -0.153023   -0.541333
      9         17           0       -3.576047   -0.065608   -0.085505
     10          1           0        1.217165    2.885273   -0.935946
     11          1           0        0.104144    2.660290    0.425306
     12          1           0        1.828368    2.967475    0.715309
     13          1           0        3.726703   -1.235165   -0.539356
     14          1           0       -1.167398   -0.755100    1.423696
     15          1           0       -1.136128    0.980349    1.159539
     16          1           0       -1.644535    0.635942   -1.275022
     17          1           0       -1.667586   -1.122545   -1.019638
 ---------------------------------------------------------------------

 SCF Done:  E(RHF) =  -1143.29684750     A.U. after   15 cycles

 The electronic state is 1-A.
 Alpha  occ. eigenvalues -- -104.80613 -91.98038 -15.58041 -11.31693 -11.30311
 Alpha  occ. eigenvalues --  -11.28256 -11.27788 -11.26286 -11.23346 -10.54518
 Alpha  occ. eigenvalues --   -8.99620  -8.01363  -8.01047  -8.01042  -6.67789
 Alpha  occ. eigenvalues --   -6.67689  -6.67533  -1.28609  -1.14559  -1.08855
 Alpha  occ. eigenvalues --   -1.04991  -0.99958  -0.92730  -0.86411  -0.79740
 Alpha  occ. eigenvalues --   -0.73581  -0.68065  -0.65549  -0.60650  -0.59501
 Alpha  occ. eigenvalues --   -0.58204  -0.57458  -0.55373  -0.54227  -0.53155
 Alpha  occ. eigenvalues --   -0.51644  -0.48645  -0.43977  -0.43659  -0.43053
 Alpha  occ. eigenvalues --   -0.38839  -0.33322
 Alpha virt. eigenvalues --    0.10864   0.15196   0.18302   0.21688   0.22904
 Alpha virt. eigenvalues --    0.24794   0.26340   0.27151   0.28600   0.29532
 Alpha virt. eigenvalues --    0.31104   0.33090   0.33738   0.36992   0.38848

 Mulliken charges:
               1
     1  C   -0.523229
     2  C    0.284524
     3  C   -0.297437
     4  S    0.284376
     5  C   -0.130683
     6  N   -0.467337
     7  C   -0.352013
     8  C   -0.381783
     9  Cl  -0.112053
    10  H    0.195068
    11  H    0.175950
    12  H    0.199230
    13  H    0.242318
    14  H    0.213496
    15  H    0.215829
    16  H    0.225857
    17  H    0.227887
 Sum of Mulliken charges =   0.00000

 Dipole moment (field-independent basis, Debye):
    X=              1.3064    Y=             -0.3827    Z=             -0.1077  Tot=              1.3655
 Quadrupole moment (field-independent basis, Debye-Ang):
   XX=            -80.1182   YY=            -65.2677   ZZ=            -68.8211
   XY=             -4.9927   XZ=             -0.1766   YZ=              1.2066

 ESP charges:
               1
     1  C   -0.774440
     2  C    0.765443
     3  C   -0.499353
     4  S   -0.022824
     5  C    0.106952
     6  N   -0.585838
     7  C    0.263708
     8  C   -0.197328
     9  Cl  -0.216434
    10  H    0.198480
    11  H    0.229053
    12  H    0.198810
    13  H    0.183746
    14  H    0.075527
    15  H   -0.020273
    16  H    0.136616
    17  H    0.158156
 Sum of ESP charges =   0.00000

 Normal termination of Gaussian 09 at Thu Jan 16 21:47:06 2014.
