 Gaussian 09, Revision D.01,
 Gaussian 09:  AM64L-G09RevD.01 24-Apr-2013

 ------------------------------------------------------------------
 # hf/gen pseudo=read pop=(mk, readradii) iop(6/33=2,6/41=5,6/42=2)
 ------------------------------------------------------------------

 -------
 na resp
 -------
 Symbolic Z-matrix:
 Charge =  0 Multiplicity = 1

                         Standard orientation:
 ---------------------------------------------------------------------
 Center     Atomic      Atomic             Coordinates (Angstroms)
 Number     Number       Type             X           Y           Z
 ---------------------------------------------------------------------
      1          6           0        2.083565    1.821216    0.000013
      2          6           0        2.996935    0.772819   -0.000013
      3          6           0        2.546037   -0.561327   -0.000072
      4          6           0        1.157381   -0.806910    0.000037
      5          6           0        0.273261    0.265260    0.000023
      6          6           0        0.704497    1.590124    0.000017
      7         53           0       -1.839563   -0.143704    0.000000
      8          7           0        3.438168   -1.609641   -0.000149
      9          1           0        2.449752    2.844807   -0.000017
     10          1           0        4.064775    0.977592   -0.000051
     11          1           0        0.792071   -1.828937    0.000142
     12          1           0        0.000899    2.413475   -0.000064
     13          1           0        4.431076   -1.445473    0.000995
     14          1           0        3.121039   -2.564751    0.000026
 ---------------------------------------------------------------------

 SCF Done:  E(RHF) =  -296.294325439     A.U. after   14 cycles

 The electronic state is 1-A.
 Alpha  occ. eigenvalues --  -15.57286 -11.29576 -11.29489 -11.24587 -11.23663
 Alpha  occ. eigenvalues --  -11.23099 -11.23075  -1.23298  -1.13711  -1.02497
 Alpha  occ. eigenvalues --   -0.99662  -0.88123  -0.83314  -0.80204  -0.70762
 Alpha  occ. eigenvalues --   -0.69244  -0.66477  -0.60835  -0.60008  -0.55132
 Alpha  occ. eigenvalues --   -0.54298  -0.51962  -0.46111  -0.44341  -0.38276
 Alpha  occ. eigenvalues --   -0.36177  -0.32557  -0.29025
 Alpha virt. eigenvalues --    0.11485   0.13354   0.15734   0.21601   0.25183
 Alpha virt. eigenvalues --    0.27517   0.30711   0.32406   0.34109   0.36085
 Alpha virt. eigenvalues --    0.43245   0.46203   0.47428   0.49762   0.52505

 Mulliken charges:
               1
     1  C   -0.174912
     2  C   -0.265664
     3  C    0.402744
     4  C   -0.203131
     5  C   -0.364714
     6  C   -0.189570
     7  I    0.169151
     8  N   -1.004417
     9  H    0.210436
    10  H    0.199490
    11  H    0.214249
    12  H    0.218133
    13  H    0.393706
    14  H    0.394498
 Sum of Mulliken charges =   0.00000

 Dipole moment (field-independent basis, Debye):
    X=              3.2522    Y=             -0.9158    Z=              0.0023  Tot=              3.3787
 Quadrupole moment (field-independent basis, Debye-Ang):
   XX=            -48.0859   YY=            -52.5597   ZZ=            -67.3310
   XY=             -3.6379   XZ=              0.0109   YZ=             -0.0045

 ESP charges:
               1
     1  C   -0.136301
     2  C   -0.363184
     3  C    0.633755
     4  C   -0.154465
     5  C   -0.275484
     6  C   -0.018861
     7  I   -0.028778
     8  N   -1.212167
     9  H    0.155752
    10  H    0.177328
    11  H    0.142236
    12  H    0.119914
    13  H    0.481102
    14  H    0.479153
 Sum of ESP charges =   0.00000

 Normal termination of Gaussian 09 at Fri Jan 17 11:54:38 2014.
