 Gaussian 09, Revision D.01,
 Gaussian 09:  AM64L-G09RevD.01 24-Apr-2013

 -----------------------------------------
 # hf/gen pop=mk iop(6/33=2,6/41=5,6/42=2)
 -----------------------------------------

 -------
 na resp
 -------
 Symbolic Z-matrix:
 Charge =  0 Multiplicity = 1

                         Standard orientation:
 ---------------------------------------------------------------------
 Center     Atomic      Atomic             Coordinates (Angstroms)
 Number     Number       Type             X           Y           Z
 ---------------------------------------------------------------------
      1          6           0       -4.917462    1.209072   -0.062900
      2          6           0       -3.433799    0.932713   -0.058129
      3          6           0       -2.543768    2.013093   -0.157866
      4          6           0       -1.159349    1.877811   -0.161411
      5          6           0       -0.593460    0.597915   -0.056713
      6          6           0       -1.441464   -0.504704    0.048553
      7          6           0       -2.825049   -0.333757    0.045237
      8          7           0       -3.616894   -1.574341    0.158471
      9          8           0       -3.007920   -2.630755    0.335193
     10          8           0       -4.842237   -1.497178    0.068678
     11          7           0        0.793614    0.350232   -0.047719
     12          6           0        1.810752    1.251342   -0.155720
     13          8           0        1.678340    2.463377   -0.272745
     14          6           0        3.253033    0.722491   -0.080240
     15          1           0        3.771396    1.093988   -0.964169
     16          6           0        3.943132    1.189216    1.198403
     17         35           0        3.424142   -1.266931   -0.234955
     18          1           0       -5.409277    0.813003    0.830044
     19          1           0       -5.085810    2.289355   -0.107271
     20          1           0       -5.414277    0.740505   -0.917222
     21          1           0       -2.962375    3.012486   -0.236932
     22          1           0       -0.516708    2.743157   -0.243793
     23          1           0       -1.049997   -1.511344    0.136042
     24          1           0        1.071744   -0.623052    0.015510
     25          1           0        3.466154    0.756623    2.082983
     26          1           0        4.997358    0.901932    1.194019
     27          1           0        3.868917    2.280008    1.254654
 ---------------------------------------------------------------------

 SCF Done:  E(RHF) =  -3288.05418660     A.U. after   17 cycles

 The electronic state is 1-A.
 Alpha  occ. eigenvalues -- -489.85737 -64.40179 -58.56826 -58.56680 -58.56668
 Alpha  occ. eigenvalues --  -20.60687 -20.60409 -20.56144 -15.85717 -15.63238
 Alpha  occ. eigenvalues --  -11.39718 -11.33557 -11.31628 -11.31422 -11.28475
 Alpha  occ. eigenvalues --  -11.27435 -11.26363 -11.26041 -11.25420 -11.23423
 Alpha  occ. eigenvalues --   -9.67935  -7.49445  -7.48672  -7.48619  -3.23732
 Alpha  occ. eigenvalues --   -3.23386  -3.23333  -3.22432  -3.22431  -1.59876
 Alpha  occ. eigenvalues --   -1.41598  -1.39216  -1.28542  -1.19256  -1.11909
 Alpha  occ. eigenvalues --   -1.08606  -1.06790  -0.98723  -0.98587  -0.94053
 Alpha  occ. eigenvalues --   -0.90479  -0.85513  -0.84771  -0.80061  -0.76762
 Alpha  occ. eigenvalues --   -0.73205  -0.71602  -0.71309  -0.68449  -0.67567
 Alpha  occ. eigenvalues --   -0.66184  -0.65070  -0.62791  -0.61628  -0.61196
 Alpha  occ. eigenvalues --   -0.58619  -0.57198  -0.56411  -0.55805  -0.54567
 Alpha  occ. eigenvalues --   -0.53481  -0.52190  -0.50632  -0.48954  -0.48164
 Alpha  occ. eigenvalues --   -0.46100  -0.45654  -0.44735  -0.42540  -0.42138
 Alpha  occ. eigenvalues --   -0.37316  -0.32911
 Alpha virt. eigenvalues --    0.04791   0.10569   0.12997   0.15323   0.18952
 Alpha virt. eigenvalues --    0.22451   0.23584   0.24340   0.26617   0.26750
 Alpha virt. eigenvalues --    0.29338   0.29808   0.30626   0.31419   0.33031

 Mulliken charges:
               1
     1  C   -0.489102
     2  C    0.075436
     3  C   -0.247064
     4  C   -0.198256
     5  C    0.373490
     6  C   -0.249647
     7  C    0.153109
     8  N    0.526821
     9  O   -0.498584
    10  O   -0.489494
    11  N   -0.965390
    12  C    0.826000
    13  O   -0.626093
    14  C   -0.239629
    15  H    0.267886
    16  C   -0.494325
    17  Br  -0.189416
    18  H    0.206569
    19  H    0.173738
    20  H    0.209544
    21  H    0.223722
    22  H    0.300549
    23  H    0.283303
    24  H    0.444964
    25  H    0.196434
    26  H    0.204824
    27  H    0.220611
 Sum of Mulliken charges =   0.00000

 Dipole moment (field-independent basis, Debye):
    X=              2.8851    Y=              2.9323    Z=              0.3573  Tot=              4.1292
 Quadrupole moment (field-independent basis, Debye-Ang):
   XX=           -109.1882   YY=           -117.3589   ZZ=           -106.1426
   XY=            -14.6728   XZ=              3.2609   YZ=              1.7786

 ESP charges:
               1
     1  C   -0.398460
     2  C    0.181222
     3  C   -0.250377
     4  C   -0.251388
     5  C    0.429779
     6  C   -0.456467
     7  C    0.009012
     8  N    0.760609
     9  O   -0.464690
    10  O   -0.448439
    11  N   -0.553188
    12  C    0.701144
    13  O   -0.577343
    14  C   -0.137459
    15  H    0.151532
    16  C   -0.138883
    17  Br  -0.145692
    18  H    0.147561
    19  H    0.102616
    20  H    0.145576
    21  H    0.188257
    22  H    0.224640
    23  H    0.275366
    24  H    0.266551
    25  H    0.073471
    26  H    0.075912
    27  H    0.089136
 Sum of ESP charges =   0.00000

 Normal termination of Gaussian 09 at Thu Jan 16 22:40:58 2014.
