 Gaussian 09, Revision D.01,
 Gaussian 09:  AM64L-G09RevD.01 24-Apr-2013

 -----------------------------------------
 # hf/gen pop=mk iop(6/33=2,6/41=5,6/42=2)
 -----------------------------------------

 -------
 na resp
 -------
 Symbolic Z-matrix:
 Charge =  0 Multiplicity = 1

                         Standard orientation:
 ---------------------------------------------------------------------
 Center     Atomic      Atomic             Coordinates (Angstroms)
 Number     Number       Type             X           Y           Z
 ---------------------------------------------------------------------
      1          7           0        3.131410   -0.283160    0.000107
      2          6           0        1.808918   -0.144181    0.000014
      3          7           0        1.152951   -1.364222    0.000019
      4          6           0        2.134253   -2.326770   -0.000151
      5          6           0        3.331744   -1.631263   -0.000023
      6          6           0       -0.234541   -1.433121    0.000020
      7          6           0       -0.888558   -0.236267    0.000012
      8          7           0       -0.321898    0.985366    0.000003
      9          6           0        1.004166    1.043973   -0.000005
     10          7           0        1.638395    2.236391    0.000324
     11          6           0        0.937390    3.506180   -0.000211
     12         35           0       -2.806227   -0.273570    0.000008
     13          1           0        0.300821    3.605588    0.886102
     14          1           0        1.677228    4.309273   -0.001973
     15          1           0        0.298749    3.603492   -0.885236
     16          1           0        2.647926    2.203988    0.000053
     17          1           0        4.328458   -2.052690   -0.000044
     18          1           0        1.901538   -3.380569   -0.000305
     19          1           0       -0.703017   -2.406081    0.000006
 ---------------------------------------------------------------------

 SCF Done:  E(RHF) =  -3056.51568940     A.U. after   15 cycles

 The electronic state is 1-A.
 Alpha  occ. eigenvalues -- -489.84082 -64.38489 -58.55162 -58.54988 -58.54983
 Alpha  occ. eigenvalues --  -15.67008 -15.59396 -15.57046 -15.56952 -11.35135
 Alpha  occ. eigenvalues --  -11.33744 -11.31453 -11.28938 -11.27801 -11.26798
 Alpha  occ. eigenvalues --  -11.26376  -9.66268  -7.47847  -7.46943  -7.46938
 Alpha  occ. eigenvalues --   -3.22165  -3.21736  -3.21726  -3.20686  -3.20685
 Alpha  occ. eigenvalues --   -1.38347  -1.30013  -1.24148  -1.19683  -1.06576
 Alpha  occ. eigenvalues --   -1.04821  -0.98088  -0.95356  -0.86630  -0.85564
 Alpha  occ. eigenvalues --   -0.82408  -0.77303  -0.71186  -0.67833  -0.66549
 Alpha  occ. eigenvalues --   -0.65547  -0.62840  -0.61327  -0.60301  -0.59473
 Alpha  occ. eigenvalues --   -0.55848  -0.53460  -0.53373  -0.49105  -0.46013
 Alpha  occ. eigenvalues --   -0.43569  -0.43126  -0.41108  -0.38951  -0.33113
 Alpha  occ. eigenvalues --   -0.29306
 Alpha virt. eigenvalues --    0.10212   0.13740   0.17038   0.22073   0.23410
 Alpha virt. eigenvalues --    0.25650   0.27079   0.28046   0.29878   0.31727
 Alpha virt. eigenvalues --    0.31839   0.33464   0.35445   0.37137   0.38643

 Mulliken charges:
               1
     1  N   -0.584663
     2  C    0.548437
     3  N   -0.680213
     4  C   -0.014018
     5  C   -0.037533
     6  C    0.049008
     7  C    0.237620
     8  N   -0.653153
     9  C    0.658659
    10  N   -0.845282
    11  C   -0.264679
    12  Br  -0.122744
    13  H    0.195197
    14  H    0.177384
    15  H    0.195298
    16  H    0.427812
    17  H    0.220074
    18  H    0.239495
    19  H    0.253298
 Sum of Mulliken charges =   0.00000

 Dipole moment (field-independent basis, Debye):
    X=              1.8879    Y=             -1.0226    Z=             -0.0018  Tot=              2.1470
 Quadrupole moment (field-independent basis, Debye-Ang):
   XX=            -85.4968   YY=            -64.7920   ZZ=            -85.3750
   XY=              1.2089   XZ=             -0.0031   YZ=             -0.0033

 ESP charges:
               1
     1  N   -0.610956
     2  C    0.022350
     3  N    0.640195
     4  C   -0.714252
     5  C    0.305580
     6  C   -0.497820
     7  C    0.129364
     8  N   -0.473167
     9  C    0.606319
    10  N   -0.449408
    11  C   -0.247788
    12  Br  -0.065774
    13  H    0.111500
    14  H    0.142088
    15  H    0.111575
    16  H    0.336386
    17  H    0.108718
    18  H    0.305287
    19  H    0.239806
 Sum of ESP charges =   0.00000

 Normal termination of Gaussian 09 at Thu Jan 16 22:37:22 2014.
