 Gaussian 09, Revision D.01,
 Gaussian 09:  AM64L-G09RevD.01 24-Apr-2013

 -----------------------------------------
 # hf/gen pop=mk iop(6/33=2,6/41=5,6/42=2)
 -----------------------------------------

 -------
 na resp
 -------
 Symbolic Z-matrix:
 Charge =  0 Multiplicity = 1

                         Standard orientation:
 ---------------------------------------------------------------------
 Center     Atomic      Atomic             Coordinates (Angstroms)
 Number     Number       Type             X           Y           Z
 ---------------------------------------------------------------------
      1          6           0       -1.052373    0.076149    1.312570
      2          6           0       -2.439931   -0.061861    1.260347
      3          6           0       -3.070063   -0.100063    0.018735
      4          6           0       -2.332557   -0.006667   -1.160937
      5          6           0       -0.947252    0.129604   -1.087036
      6          6           0       -0.282636    0.173909    0.147372
      7          6           0        1.227475    0.353409    0.226141
      8          1           0        1.515245    0.223248    1.278531
      9          6           0        1.981500   -0.714695   -0.625052
     10          6           0        3.314878   -1.219658   -0.055354
     11          8           0        4.251658   -0.293848    0.193817
     12          8           0        3.516731   -2.396886    0.144466
     13          6           0        1.577682    1.805351   -0.177112
     14          7           0        3.003387    2.115213    0.050887
     15         17           0       -4.818150   -0.272844   -0.063594
     16          1           0       -0.562252    0.100255    2.283035
     17          1           0       -3.023662   -0.142700    2.171171
     18          1           0       -2.835435   -0.043231   -2.121554
     19          1           0       -0.380357    0.192435   -2.012539
     20          1           0        1.358046   -1.603347   -0.734664
     21          1           0        2.165289   -0.319644   -1.634595
     22          1           0        1.376784    1.932305   -1.246923
     23          1           0        0.913239    2.499019    0.357077
     24          1           0        3.158270    2.362630    1.027885
     25          1           0        3.900028    0.622967   -0.006532
     26          1           0        3.292194    2.920910   -0.500304
 ---------------------------------------------------------------------

 SCF Done:  E(RHF) =  -1049.32953143     A.U. after   16 cycles

 The electronic state is 1-A.
 Alpha  occ. eigenvalues -- -104.82628 -20.57290 -20.52437 -15.59648 -11.36705
 Alpha  occ. eigenvalues --  -11.31309 -11.28941 -11.27028 -11.26651 -11.26237
 Alpha  occ. eigenvalues --  -11.26160 -11.25946 -11.25851 -11.24854 -10.56470
 Alpha  occ. eigenvalues --   -8.03327  -8.02996  -8.02992  -1.42477  -1.32893
 Alpha  occ. eigenvalues --   -1.22829  -1.19671  -1.13847  -1.08238  -1.04009
 Alpha  occ. eigenvalues --   -0.99938  -0.95697  -0.86796  -0.85371  -0.80797
 Alpha  occ. eigenvalues --   -0.78962  -0.72915  -0.69709  -0.69231  -0.66884
 Alpha  occ. eigenvalues --   -0.66118  -0.64686  -0.63987  -0.62327  -0.61094
 Alpha  occ. eigenvalues --   -0.60033  -0.57634  -0.55686  -0.54906  -0.53627
 Alpha  occ. eigenvalues --   -0.53413  -0.52974  -0.50696  -0.49417  -0.46938
 Alpha  occ. eigenvalues --   -0.45882  -0.44352  -0.44122  -0.41428  -0.35917
 Alpha  occ. eigenvalues --   -0.33818
 Alpha virt. eigenvalues --    0.11389   0.11681   0.18051   0.18664   0.19846
 Alpha virt. eigenvalues --    0.22514   0.24344   0.25897   0.27291   0.28218
 Alpha virt. eigenvalues --    0.28753   0.29424   0.31077   0.31669   0.32781

 Mulliken charges:
               1
     1  C   -0.223808
     2  C   -0.176053
     3  C   -0.143234
     4  C   -0.176966
     5  C   -0.216148
     6  C    0.039573
     7  C   -0.225385
     8  H    0.199013
     9  C   -0.463918
    10  C    0.825164
    11  O   -0.806751
    12  O   -0.579115
    13  C   -0.109819
    14  N   -0.951072
    15  Cl   0.000330
    16  H    0.216445
    17  H    0.237890
    18  H    0.236979
    19  H    0.213231
    20  H    0.236605
    21  H    0.189481
    22  H    0.178473
    23  H    0.183242
    24  H    0.374028
    25  H    0.564057
    26  H    0.377760
 Sum of Mulliken charges =   0.00000

 Dipole moment (field-independent basis, Debye):
    X=             -1.5843    Y=              6.7168    Z=             -0.6497  Tot=              6.9316
 Quadrupole moment (field-independent basis, Debye-Ang):
   XX=           -120.3107   YY=            -94.1175   ZZ=            -80.2881
   XY=             23.4282   XZ=             -3.4619   YZ=              1.7689

 ESP charges:
               1
     1  C   -0.321091
     2  C    0.039900
     3  C   -0.108726
     4  C    0.057626
     5  C   -0.369348
     6  C    0.192230
     7  C    0.122441
     8  H    0.064701
     9  C   -0.527418
    10  C    0.884232
    11  O   -0.650311
    12  O   -0.601738
    13  C    0.115997
    14  N   -0.653372
    15  Cl  -0.107018
    16  H    0.156051
    17  H    0.126389
    18  H    0.121120
    19  H    0.181806
    20  H    0.150608
    21  H    0.152186
    22  H    0.048407
    23  H   -0.010160
    24  H    0.300433
    25  H    0.338858
    26  H    0.296199
 Sum of ESP charges =   0.00000

 Normal termination of Gaussian 09 at Thu Jan 16 21:49:34 2014.
