 Gaussian 09, Revision D.01,
 Gaussian 09:  AM64L-G09RevD.01 24-Apr-2013

 -----------------------------------------
 # hf/gen pop=mk iop(6/33=2,6/41=5,6/42=2)
 -----------------------------------------

 -------
 na resp
 -------
 Symbolic Z-matrix:
 Charge =  0 Multiplicity = 1

                         Standard orientation:
 ---------------------------------------------------------------------
 Center     Atomic      Atomic             Coordinates (Angstroms)
 Number     Number       Type             X           Y           Z
 ---------------------------------------------------------------------
      1          6           0       -2.112799    1.927715   -0.000016
      2          6           0       -0.881571    2.624794    0.000049
      3          6           0        0.296769    1.912296    0.000034
      4          6           0        0.259012    0.494714    0.000006
      5          6           0       -1.038146   -0.103824   -0.000015
      6          7           0       -2.194208    0.611028   -0.000042
      7          6           0       -1.183180   -1.526707    0.000006
      8          6           0       -0.059270   -2.327438    0.000039
      9          6           0        1.225015   -1.740223    0.000025
     10          6           0        1.385793   -0.371408    0.000008
     11         17           0        3.012099    0.306412   -0.000032
     12          8           0       -2.427831   -2.046965   -0.000011
     13          1           0       -0.877556    3.710203   -0.000006
     14          1           0        1.255517    2.420269    0.000101
     15          1           0        2.101893   -2.379126    0.000033
     16          1           0       -0.169870   -3.406425    0.000076
     17          1           0       -3.053522    2.475474    0.000006
     18          1           0       -3.029782   -1.270401   -0.000096
 ---------------------------------------------------------------------

 SCF Done:  E(RHF) =  -933.101559390     A.U. after   16 cycles

 The electronic state is 1-A.
 Alpha  occ. eigenvalues -- -104.82526 -20.58961 -15.59361 -11.31577 -11.30483
 Alpha  occ. eigenvalues --  -11.29822 -11.29190 -11.27568 -11.27466 -11.26222
 Alpha  occ. eigenvalues --  -11.26000 -11.24313 -10.56337  -8.03193  -8.02874
 Alpha  occ. eigenvalues --   -8.02861  -1.40947  -1.27908  -1.18502  -1.10959
 Alpha  occ. eigenvalues --   -1.09978  -1.04094  -0.98596  -0.89415  -0.88596
 Alpha  occ. eigenvalues --   -0.81144  -0.75638  -0.74374  -0.71126  -0.66885
 Alpha  occ. eigenvalues --   -0.63949  -0.62825  -0.60673  -0.59848  -0.59409
 Alpha  occ. eigenvalues --   -0.56969  -0.55219  -0.54367  -0.51696  -0.51388
 Alpha  occ. eigenvalues --   -0.45892  -0.44233  -0.44100  -0.40938  -0.34391
 Alpha  occ. eigenvalues --   -0.29627
 Alpha virt. eigenvalues --    0.06593   0.10330   0.17326   0.19510   0.23705
 Alpha virt. eigenvalues --    0.26319   0.26958   0.28405   0.29154   0.31053
 Alpha virt. eigenvalues --    0.32220   0.39637   0.40263   0.40647   0.43014

 Mulliken charges:
               1
     1  C    0.088931
     2  C   -0.276356
     3  C   -0.136499
     4  C    0.037777
     5  C    0.201508
     6  N   -0.641907
     7  C    0.477592
     8  C   -0.266652
     9  C   -0.164271
    10  C   -0.186601
    11  Cl   0.003626
    12  O   -0.817161
    13  H    0.226157
    14  H    0.256234
    15  H    0.238064
    16  H    0.233767
    17  H    0.220321
    18  H    0.505469
 Sum of Mulliken charges =   0.00000

 Dipole moment (field-independent basis, Debye):
    X=             -0.3809    Y=              2.2822    Z=              0.0000  Tot=              2.3137
 Quadrupole moment (field-independent basis, Debye-Ang):
   XX=            -77.6812   YY=            -66.0480   ZZ=            -79.4218
   XY=             -7.9002   XZ=              0.0005   YZ=              0.0000

 ESP charges:
               1
     1  C    0.329517
     2  C   -0.385379
     3  C    0.007032
     4  C    0.042969
     5  C    0.303668
     6  N   -0.566955
     7  C    0.291875
     8  C   -0.386596
     9  C   -0.006706
    10  C   -0.164643
    11  Cl  -0.100129
    12  O   -0.538405
    13  H    0.188272
    14  H    0.141295
    15  H    0.151424
    16  H    0.227545
    17  H    0.072009
    18  H    0.393208
 Sum of ESP charges =   0.00000

 Normal termination of Gaussian 09 at Thu Jan 16 21:47:20 2014.
