 Gaussian 09, Revision D.01,
 Gaussian 09:  AM64L-G09RevD.01 24-Apr-2013

 ------------------------------------------------------------------
 # hf/gen pseudo=read pop=(mk, readradii) iop(6/33=2,6/41=5,6/42=2)
 ------------------------------------------------------------------

 -------
 na resp
 -------
 Symbolic Z-matrix:
 Charge =  0 Multiplicity = 1

                         Standard orientation:
 ---------------------------------------------------------------------
 Center     Atomic      Atomic             Coordinates (Angstroms)
 Number     Number       Type             X           Y           Z
 ---------------------------------------------------------------------
      1          6           0        1.080646    0.772602   -0.609219
      2          6           0        0.832034    2.146188   -0.509925
      3          6           0       -0.447625    2.628615   -0.237569
      4          6           0       -1.520316    1.748249   -0.056484
      5          6           0       -1.278150    0.369487   -0.158412
      6          6           0       -0.000078   -0.105746   -0.431248
      7          8           0       -2.781482    2.177912    0.209930
      8         53           0       -2.886660   -1.009305    0.097757
      9          6           0        2.471194    0.236346   -0.874685
     10          6           0        3.145889   -0.371499    0.379842
     11          7           0        3.352292    0.653909    1.415219
     12          6           0        4.512699   -0.949227   -0.042813
     13          8           0        4.619226   -1.963799   -0.691007
     14          8           0        5.556648   -0.196041    0.336557
     15          1           0        2.535437   -1.216017    0.725053
     16          1           0        1.643502    2.853899   -0.662599
     17          1           0       -0.621527    3.701148   -0.170589
     18          1           0        0.161695   -1.176090   -0.514941
     19          1           0        2.449875   -0.548995   -1.637255
     20          1           0        3.112395    1.039935   -1.257923
     21          1           0        2.597346    1.337463    1.398326
     22          1           0        3.349397    0.234647    2.343097
     23          1           0        5.154203    0.547322    0.854555
     24          1           0       -2.788307    3.147801    0.233856
 ---------------------------------------------------------------------

 SCF Done:  E(RHF) =  -636.820532406     A.U. after   16 cycles

 The electronic state is 1-A.
 Alpha  occ. eigenvalues --  -20.61563 -20.59691 -20.54107 -15.58726 -11.37877
 Alpha  occ. eigenvalues --  -11.33741 -11.30234 -11.29498 -11.27032 -11.26876
 Alpha  occ. eigenvalues --  -11.26473 -11.26247 -11.25903  -1.44553  -1.42920
 Alpha  occ. eigenvalues --   -1.35004  -1.22612  -1.17902  -1.07591  -1.05146
 Alpha  occ. eigenvalues --   -1.00313  -0.90995  -0.89834  -0.85742  -0.80355
 Alpha  occ. eigenvalues --   -0.79595  -0.75725  -0.72958  -0.70879  -0.69249
 Alpha  occ. eigenvalues --   -0.67265  -0.65247  -0.63585  -0.62164  -0.61390
 Alpha  occ. eigenvalues --   -0.61110  -0.59464  -0.57192  -0.55877  -0.55533
 Alpha  occ. eigenvalues --   -0.53570  -0.52516  -0.49984  -0.46529  -0.46400
 Alpha  occ. eigenvalues --   -0.45378  -0.42065  -0.40718  -0.36882  -0.34671
 Alpha  occ. eigenvalues --   -0.32415
 Alpha virt. eigenvalues --    0.10284   0.10597   0.12418   0.18777   0.19973
 Alpha virt. eigenvalues --    0.20218   0.22986   0.25230   0.26955   0.28870
 Alpha virt. eigenvalues --    0.30064   0.30796   0.31927   0.33184   0.33993

 Mulliken charges:
               1
     1  C   -0.002608
     2  C   -0.218161
     3  C   -0.288446
     4  C    0.545086
     5  C   -0.478230
     6  C   -0.143101
     7  O   -0.787316
     8  I    0.237820
     9  C   -0.387188
    10  C   -0.084900
    11  N   -0.943496
    12  C    0.842487
    13  O   -0.583386
    14  O   -0.768956
    15  H    0.211719
    16  H    0.221989
    17  H    0.208969
    18  H    0.235290
    19  H    0.234201
    20  H    0.200084
    21  H    0.383939
    22  H    0.372432
    23  H    0.520030
    24  H    0.471745
 Sum of Mulliken charges =   0.00000

 Dipole moment (field-independent basis, Debye):
    X=             -2.5056    Y=              5.5983    Z=              2.3649  Tot=              6.5736
 Quadrupole moment (field-independent basis, Debye-Ang):
   XX=           -131.2189   YY=            -86.2169   ZZ=            -94.9159
   XY=             11.6389   XZ=              9.3198   YZ=             -2.7672

 ESP charges:
               1
     1  C   -0.011939
     2  C   -0.061489
     3  C   -0.496607
     4  C    0.694870
     5  C   -0.564082
     6  C    0.207357
     7  O   -0.644745
     8  I    0.047795
     9  C   -0.356154
    10  C    0.254762
    11  N   -1.001977
    12  C    0.761481
    13  O   -0.591193
    14  O   -0.604485
    15  H    0.017236
    16  H    0.161819
    17  H    0.193991
    18  H    0.095571
    19  H    0.124211
    20  H    0.141251
    21  H    0.377686
    22  H    0.391127
    23  H    0.412506
    24  H    0.451013
 Sum of ESP charges =   0.00000

 Normal termination of Gaussian 09 at Fri Jan 17 11:56:48 2014.
