 Gaussian 09, Revision D.01,
 Gaussian 09:  AM64L-G09RevD.01 24-Apr-2013

 -----------------------------------------
 # hf/gen pop=mk iop(6/33=2,6/41=5,6/42=2)
 -----------------------------------------

 -------
 na resp
 -------
 Symbolic Z-matrix:
 Charge =  0 Multiplicity = 1

                         Standard orientation:
 ---------------------------------------------------------------------
 Center     Atomic      Atomic             Coordinates (Angstroms)
 Number     Number       Type             X           Y           Z
 ---------------------------------------------------------------------
      1          6           0       -3.607056    1.825593    0.000201
      2          8           0       -3.143591    0.482905   -0.000214
      3          6           0       -1.816802    0.239906   -0.000148
      4          6           0       -0.853577    1.257814   -0.000217
      5          6           0        0.515062    0.954122   -0.000166
      6          6           0        0.920620   -0.393840   -0.000060
      7          6           0       -0.033031   -1.394215   -0.000014
      8          6           0       -1.408610   -1.117808   -0.000046
      9          6           0       -2.327261   -2.272719    0.000071
     10          8           0       -3.542324   -2.251892    0.000118
     11         35           0        2.773945   -0.831098    0.000041
     12          8           0        1.491929    1.886771   -0.000259
     13          6           0        1.137326    3.263911    0.000275
     14          1           0       -4.695566    1.757453    0.000508
     15          1           0       -3.276138    2.365656   -0.896247
     16          1           0       -3.275595    2.365279    0.896671
     17          1           0       -1.165693    2.292318   -0.000408
     18          1           0        0.290396   -2.431314    0.000084
     19          1           0       -1.782124   -3.245985    0.000185
     20          1           0        2.082116    3.808810    0.000618
     21          1           0        0.563326    3.529060   -0.896253
     22          1           0        0.563093    3.528301    0.896872
 ---------------------------------------------------------------------

 SCF Done:  E(RHF) =  -3140.18607900     A.U. after   16 cycles

 The electronic state is 1-A.
 Alpha  occ. eigenvalues -- -489.84285 -64.38635 -58.55330 -58.55145 -58.55135
 Alpha  occ. eigenvalues --  -20.61755 -20.60726 -20.54740 -11.34755 -11.34216
 Alpha  occ. eigenvalues --  -11.32972 -11.30559 -11.29839 -11.29475 -11.27738
 Alpha  occ. eigenvalues --  -11.25297 -11.24851  -9.66373  -7.47959  -7.47042
 Alpha  occ. eigenvalues --   -7.47040  -3.22288  -3.21849  -3.21842  -3.20777
 Alpha  occ. eigenvalues --   -3.20776  -1.44095  -1.43223  -1.37229  -1.17959
 Alpha  occ. eigenvalues --   -1.07554  -1.05812  -0.99168  -0.98511  -0.93882
 Alpha  occ. eigenvalues --   -0.87489  -0.84526  -0.78550  -0.74721  -0.71741
 Alpha  occ. eigenvalues --   -0.67943  -0.67696  -0.66838  -0.66771  -0.64653
 Alpha  occ. eigenvalues --   -0.62542  -0.61489  -0.58892  -0.56777  -0.56572
 Alpha  occ. eigenvalues --   -0.54003  -0.53381  -0.51461  -0.50882  -0.50194
 Alpha  occ. eigenvalues --   -0.47719  -0.42272  -0.41417  -0.40593  -0.35492
 Alpha  occ. eigenvalues --   -0.31339
 Alpha virt. eigenvalues --    0.08724   0.12640   0.16626   0.21361   0.21791
 Alpha virt. eigenvalues --    0.24750   0.25986   0.27306   0.28371   0.28857
 Alpha virt. eigenvalues --    0.29495   0.29924   0.32211   0.33612   0.33856

 Mulliken charges:
               1
     1  C   -0.192349
     2  O   -0.659287
     3  C    0.539152
     4  C   -0.406420
     5  C    0.542316
     6  C   -0.093927
     7  C   -0.167361
     8  C   -0.178458
     9  C    0.364526
    10  O   -0.521645
    11  Br  -0.107210
    12  O   -0.675068
    13  C   -0.191894
    14  H    0.214370
    15  H    0.168055
    16  H    0.168055
    17  H    0.234214
    18  H    0.251011
    19  H    0.152369
    20  H    0.211320
    21  H    0.174113
    22  H    0.174116
 Sum of Mulliken charges =   0.00000

 Dipole moment (field-independent basis, Debye):
    X=              0.7497    Y=              5.0177    Z=              0.0011  Tot=              5.0734
 Quadrupole moment (field-independent basis, Debye-Ang):
   XX=           -104.3549   YY=            -71.8798   ZZ=            -89.9094
   XY=            -13.7018   XZ=             -0.0001   YZ=              0.0023

 ESP charges:
               1
     1  C   -0.183081
     2  O   -0.248259
     3  C    0.581161
     4  C   -0.688259
     5  C    0.792251
     6  C   -0.539156
     7  C    0.173174
     8  C   -0.434791
     9  C    0.549599
    10  O   -0.527266
    11  Br  -0.028196
    12  O   -0.342832
    13  C   -0.152536
    14  H    0.141943
    15  H    0.107802
    16  H    0.107802
    17  H    0.216649
    18  H    0.133522
    19  H   -0.004787
    20  H    0.139936
    21  H    0.102662
    22  H    0.102660
 Sum of ESP charges =   0.00000

 Normal termination of Gaussian 09 at Thu Jan 16 22:39:24 2014.
