 Gaussian 09, Revision D.01,
 Gaussian 09:  AM64L-G09RevD.01 24-Apr-2013

 ------------------------------------------------------------------
 # hf/gen pseudo=read pop=(mk, readradii) iop(6/33=2,6/41=5,6/42=2)
 ------------------------------------------------------------------

 -------
 na resp
 -------
 Symbolic Z-matrix:
 Charge =  0 Multiplicity = 1

                         Standard orientation:
 ---------------------------------------------------------------------
 Center     Atomic      Atomic             Coordinates (Angstroms)
 Number     Number       Type             X           Y           Z
 ---------------------------------------------------------------------
      1          6           0       -6.665280   -0.074050   -0.000003
      2          6           0       -5.630940    0.911216    0.000123
      3          6           0       -4.446701    0.229152   -0.000091
      4          8           0       -4.686801   -1.124421   -0.000595
      5          6           0       -6.038478   -1.285580   -0.000084
      6          6           0       -3.055648    0.719192    0.000089
      7          8           0       -2.815001    1.922107    0.000464
      8          7           0       -2.108361   -0.282580   -0.000043
      9          6           0       -0.707400   -0.163726    0.000063
     10          6           0        0.042698   -1.350803    0.000390
     11          6           0        1.434652   -1.317763    0.000472
     12          6           0        2.087850   -0.086054    0.000124
     13          6           0        1.357693    1.100495   -0.000230
     14          6           0       -0.037143    1.069860   -0.000227
     15         53           0        4.231424   -0.017947   -0.000064
     16          1           0       -7.732750    0.095469    0.000113
     17          1           0       -5.732004    1.986460    0.000334
     18          1           0       -6.388689   -2.306672   -0.000230
     19          1           0       -2.471027   -1.227611    0.000400
     20          1           0       -0.466202   -2.312617    0.000539
     21          1           0        1.994459   -2.246660    0.000787
     22          1           0        1.863501    2.059821   -0.000465
     23          1           0       -0.607631    1.987963   -0.000490
 ---------------------------------------------------------------------

 SCF Done:  E(RHF) =  -636.521737996     A.U. after   16 cycles

 The electronic state is 1-A.
 Alpha  occ. eigenvalues --  -20.65707 -20.54240 -15.61544 -11.38274 -11.32134
 Alpha  occ. eigenvalues --  -11.31045 -11.30095 -11.28805 -11.26251 -11.25637
 Alpha  occ. eigenvalues --  -11.25394 -11.25207 -11.24835 -11.23614  -1.48591
 Alpha  occ. eigenvalues --   -1.39345  -1.26593  -1.15651  -1.10914  -1.05720
 Alpha  occ. eigenvalues --   -1.02912  -1.01587  -0.90648  -0.86145  -0.85258
 Alpha  occ. eigenvalues --   -0.83019  -0.80390  -0.77698  -0.76881  -0.71938
 Alpha  occ. eigenvalues --   -0.68047  -0.66568  -0.64008  -0.63299  -0.61866
 Alpha  occ. eigenvalues --   -0.60769  -0.59843  -0.59599  -0.59458  -0.58107
 Alpha  occ. eigenvalues --   -0.56669  -0.52424  -0.51405  -0.45906  -0.45844
 Alpha  occ. eigenvalues --   -0.43615  -0.41738  -0.37597  -0.36387  -0.34821
 Alpha  occ. eigenvalues --   -0.34174  -0.30023
 Alpha virt. eigenvalues --    0.08452   0.11477   0.12999   0.14431   0.20201
 Alpha virt. eigenvalues --    0.23069   0.25060   0.26185   0.27743   0.29555
 Alpha virt. eigenvalues --    0.29678   0.30074   0.31996   0.34178   0.34913

 Mulliken charges:
               1
     1  C   -0.298456
     2  C   -0.195139
     3  C    0.270311
     4  O   -0.655619
     5  C    0.155573
     6  C    0.819096
     7  O   -0.637966
     8  N   -0.974450
     9  C    0.394107
    10  C   -0.265057
    11  C   -0.128913
    12  C   -0.412284
    13  C   -0.130630
    14  C   -0.245302
    15  I    0.178948
    16  H    0.233483
    17  H    0.261045
    18  H    0.242434
    19  H    0.431218
    20  H    0.207869
    21  H    0.227633
    22  H    0.230019
    23  H    0.292082
 Sum of Mulliken charges =   0.00000

 Dipole moment (field-independent basis, Debye):
    X=             -4.7667    Y=             -3.2530    Z=              0.0005  Tot=              5.7709
 Quadrupole moment (field-independent basis, Debye-Ang):
   XX=            -74.6432   YY=            -95.3422   ZZ=           -106.2405
   XY=              9.8606   XZ=             -0.0029   YZ=             -0.0060

 ESP charges:
               1
     1  C   -0.192159
     2  C   -0.134357
     3  C   -0.013134
     4  O   -0.134649
     5  C   -0.086363
     6  C    0.687081
     7  O   -0.595988
     8  N   -0.588669
     9  C    0.606500
    10  C   -0.567751
    11  C    0.259762
    12  C   -0.449654
    13  C    0.215847
    14  C   -0.488530
    15  I   -0.026075
    16  H    0.176955
    17  H    0.185178
    18  H    0.198542
    19  H    0.276475
    20  H    0.224717
    21  H    0.092744
    22  H    0.101468
    23  H    0.252059
 Sum of ESP charges =   0.00000

 Normal termination of Gaussian 09 at Fri Jan 17 11:56:54 2014.
