 Gaussian 09, Revision D.01,
 Gaussian 09:  AM64L-G09RevD.01 24-Apr-2013

 -----------------------------------------
 # hf/gen pop=mk iop(6/33=2,6/41=5,6/42=2)
 -----------------------------------------

 -------
 na resp
 -------
 Symbolic Z-matrix:
 Charge =  0 Multiplicity = 1

                         Standard orientation:
 ---------------------------------------------------------------------
 Center     Atomic      Atomic             Coordinates (Angstroms)
 Number     Number       Type             X           Y           Z
 ---------------------------------------------------------------------
      1          6           0       -0.179547    0.027706    0.180417
      2          6           0       -1.524347   -0.033257    0.064563
      3          6           0       -2.309367    1.172158   -0.210240
      4          8           0       -3.515557    1.252154   -0.336831
      5          7           0       -1.494198    2.315786   -0.328421
      6          1           0       -1.982136    3.183732   -0.522134
      7          6           0       -0.120438    2.430426   -0.216942
      8          8           0        0.468270    3.491688   -0.335727
      9          7           0        0.523591    1.213389    0.057599
     10          6           0        1.986115    1.227705    0.170195
     11          1           0        2.276731    2.260077   -0.019699
     12          6           0        2.519079    0.678488    1.509265
     13          8           0        2.804912   -0.682085    1.210491
     14          6           0        3.313838   -0.655270   -0.100467
     15          1           0        4.379083   -0.365324   -0.089969
     16          8           0        2.568941    0.359059   -0.792807
     17          6           0        3.128682   -1.997449   -0.796812
     18          8           0        1.771042   -2.315640   -1.023234
     19         35           0       -2.453608   -1.668031    0.234779
     20          1           0        0.424216   -0.856363    0.353491
     21          1           0        3.433302    1.217497    1.798984
     22          1           0        1.795361    0.719643    2.324612
     23          1           0        3.707770   -1.984012   -1.732218
     24          1           0        3.540449   -2.780795   -0.154119
     25          1           0        1.430814   -1.662034   -1.655476
 ---------------------------------------------------------------------

 SCF Done:  E(RHF) =  -3360.98907745     A.U. after   16 cycles

 The electronic state is 1-A.
 Alpha  occ. eigenvalues -- -489.85298 -64.39654 -58.56350 -58.56156 -58.56147
 Alpha  occ. eigenvalues --  -20.61309 -20.61082 -20.58488 -20.56366 -20.55799
 Alpha  occ. eigenvalues --  -15.65714 -15.63792 -11.43493 -11.39662 -11.36890
 Alpha  occ. eigenvalues --  -11.36613 -11.34174 -11.32176 -11.30969 -11.30275
 Alpha  occ. eigenvalues --   -9.67403  -7.49018  -7.48048  -7.48046  -3.23359
 Alpha  occ. eigenvalues --   -3.22893  -3.22887  -3.21761  -3.21760  -1.48744
 Alpha  occ. eigenvalues --   -1.44332  -1.40786  -1.38309  -1.37845  -1.31843
 Alpha  occ. eigenvalues --   -1.25570  -1.12751  -1.07640  -0.99783  -0.97981
 Alpha  occ. eigenvalues --   -0.93363  -0.92313  -0.86515  -0.85446  -0.79024
 Alpha  occ. eigenvalues --   -0.76764  -0.74923  -0.72894  -0.70421  -0.69907
 Alpha  occ. eigenvalues --   -0.68707  -0.67406  -0.66212  -0.64669  -0.64433
 Alpha  occ. eigenvalues --   -0.62537  -0.61279  -0.59834  -0.57849  -0.55753
 Alpha  occ. eigenvalues --   -0.55370  -0.54287  -0.53564  -0.51772  -0.50904
 Alpha  occ. eigenvalues --   -0.48555  -0.47963  -0.46019  -0.45194  -0.44684
 Alpha  occ. eigenvalues --   -0.43648  -0.41913  -0.34629
 Alpha virt. eigenvalues --    0.08689   0.15941   0.16092   0.21031   0.22701
 Alpha virt. eigenvalues --    0.24090   0.24837   0.25824   0.27308   0.27746
 Alpha virt. eigenvalues --    0.29338   0.30184   0.30776   0.32219   0.33373

 Mulliken charges:
               1
     1  C    0.177177
     2  C   -0.245640
     3  C    0.887916
     4  O   -0.578270
     5  N   -0.967643
     6  H    0.439623
     7  C    1.109204
     8  O   -0.625493
     9  N   -0.824123
    10  C    0.372317
    11  H    0.270483
    12  C   -0.062515
    13  O   -0.661636
    14  C    0.496837
    15  H    0.173001
    16  O   -0.717996
    17  C   -0.007204
    18  O   -0.768237
    19  Br  -0.061438
    20  H    0.338409
    21  H    0.194429
    22  H    0.219758
    23  H    0.170676
    24  H    0.202352
    25  H    0.468015
 Sum of Mulliken charges =   0.00000

 Dipole moment (field-independent basis, Debye):
    X=              5.8378    Y=              0.1896    Z=              0.7939  Tot=              5.8946
 Quadrupole moment (field-independent basis, Debye-Ang):
   XX=           -105.9064   YY=           -114.8796   ZZ=           -101.7145
   XY=             -1.8340   XZ=              0.0843   YZ=              4.8442

 ESP charges:
               1
     1  C    0.513284
     2  C   -0.697663
     3  C    1.094020
     4  O   -0.620016
     5  N   -0.884180
     6  H    0.414438
     7  C    0.946965
     8  O   -0.627571
     9  N   -0.439064
    10  C    0.226009
    11  H    0.137473
    12  C   -0.091010
    13  O   -0.338953
    14  C    0.224593
    15  H    0.075076
    16  O   -0.401429
    17  C    0.194328
    18  O   -0.623663
    19  Br   0.024351
    20  H    0.096928
    21  H    0.124278
    22  H    0.131820
    23  H    0.025275
    24  H    0.083450
    25  H    0.411264
 Sum of ESP charges =   0.00000

 Normal termination of Gaussian 09 at Thu Jan 16 22:41:02 2014.
