 Gaussian 09, Revision D.01,
 Gaussian 09:  AM64L-G09RevD.01 24-Apr-2013

 -----------------------------------------
 # hf/gen pop=mk iop(6/33=2,6/41=5,6/42=2)
 -----------------------------------------

 -------
 na resp
 -------
 Symbolic Z-matrix:
 Charge =  0 Multiplicity = 1

                         Standard orientation:
 ---------------------------------------------------------------------
 Center     Atomic      Atomic             Coordinates (Angstroms)
 Number     Number       Type             X           Y           Z
 ---------------------------------------------------------------------
      1          6           0        3.158777    1.274225    0.000057
      2          6           0        1.711079    0.855153   -0.000067
      3          6           0        0.686918    1.807808   -0.000223
      4          6           0       -0.663628    1.448320   -0.000296
      5          6           0       -1.050319    0.097323   -0.000258
      6          6           0       -0.028025   -0.855888   -0.000054
      7          6           0        1.314732   -0.487758    0.000056
      8         17           0        2.535754   -1.765433    0.000283
      9          6           0       -2.517430   -0.314169   -0.000347
     10          6           0       -2.884091   -1.106067   -1.270034
     11          6           0       -2.884829   -1.103360    1.270813
     12          8           0       -1.652819    2.399299   -0.000512
     13          1           0        3.686030    0.886659   -0.879355
     14          1           0        3.249164    2.364523   -0.000005
     15          1           0        3.685882    0.886773    0.879616
     16          1           0        0.955501    2.863601   -0.000299
     17          1           0       -0.279715   -1.911553    0.000023
     18          1           0       -3.110488    0.605199   -0.001487
     19          1           0       -2.658401   -0.531297   -2.174757
     20          1           0       -2.331048   -2.051437   -1.327280
     21          1           0       -3.954003   -1.346249   -1.276644
     22          1           0       -2.659778   -0.526592    2.174418
     23          1           0       -3.954710   -1.343679    1.277265
     24          1           0       -2.331658   -2.048507    1.330432
     25          1           0       -1.241144    3.277006   -0.000508
 ---------------------------------------------------------------------

 SCF Done:  E(RHF) =  -920.592275767     A.U. after   14 cycles

 The electronic state is 1-A.
 Alpha  occ. eigenvalues -- -104.81315 -20.59747 -11.30927 -11.29087 -11.26204
 Alpha  occ. eigenvalues --  -11.24779 -11.24115 -11.24071 -11.23183 -11.22981
 Alpha  occ. eigenvalues --  -11.21207 -11.21204 -10.55137  -8.01992  -8.01674
 Alpha  occ. eigenvalues --   -8.01667  -1.40667  -1.18316  -1.11383  -1.08358
 Alpha  occ. eigenvalues --   -1.02829  -0.98685  -0.93898  -0.92740  -0.85229
 Alpha  occ. eigenvalues --   -0.82060  -0.76618  -0.72871  -0.68628  -0.63583
 Alpha  occ. eigenvalues --   -0.60506  -0.60323  -0.60140  -0.59174  -0.58798
 Alpha  occ. eigenvalues --   -0.57786  -0.55630  -0.54706  -0.53604  -0.52646
 Alpha  occ. eigenvalues --   -0.51507  -0.50759  -0.48087  -0.47214  -0.46491
 Alpha  occ. eigenvalues --   -0.44345  -0.44124  -0.33621  -0.30585
 Alpha virt. eigenvalues --    0.13038   0.14486   0.19951   0.21591   0.23400
 Alpha virt. eigenvalues --    0.25031   0.27909   0.28054   0.29966   0.30083
 Alpha virt. eigenvalues --    0.31376   0.33187   0.33848   0.34780   0.35265

 Mulliken charges:
               1
     1  C   -0.525116
     2  C    0.085437
     3  C   -0.316512
     4  C    0.438146
     5  C   -0.008228
     6  C   -0.177442
     7  C   -0.193162
     8  Cl  -0.013863
     9  C   -0.199819
    10  C   -0.477084
    11  C   -0.477045
    12  O   -0.813249
    13  H    0.199614
    14  H    0.176443
    15  H    0.199615
    16  H    0.196642
    17  H    0.232173
    18  H    0.216347
    19  H    0.174187
    20  H    0.157020
    21  H    0.163952
    22  H    0.174187
    23  H    0.163936
    24  H    0.157031
    25  H    0.466791
 Sum of Mulliken charges =   0.00000

 Dipole moment (field-independent basis, Debye):
    X=             -0.2860    Y=              2.5095    Z=             -0.0003  Tot=              2.5257
 Quadrupole moment (field-independent basis, Debye-Ang):
   XX=            -80.9941   YY=            -71.2612   ZZ=            -83.1380
   XY=              6.3584   XZ=              0.0002   YZ=             -0.0006

 ESP charges:
               1
     1  C   -0.372548
     2  C    0.464531
     3  C   -0.665140
     4  C    0.527381
     5  C   -0.316559
     6  C    0.009921
     7  C   -0.235986
     8  Cl  -0.108753
     9  C    0.528410
    10  C   -0.503062
    11  C   -0.502712
    12  O   -0.667282
    13  H    0.108995
    14  H    0.108057
    15  H    0.109006
    16  H    0.224904
    17  H    0.134413
    18  H    0.002099
    19  H    0.115102
    20  H    0.120821
    21  H    0.111092
    22  H    0.115055
    23  H    0.110993
    24  H    0.120699
    25  H    0.460562
 Sum of ESP charges =   0.00000

 Normal termination of Gaussian 09 at Thu Jan 16 21:47:25 2014.
