 Gaussian 09, Revision D.01,
 Gaussian 09:  AM64L-G09RevD.01 24-Apr-2013

 -----------------------------------------
 # hf/gen pop=mk iop(6/33=2,6/41=5,6/42=2)
 -----------------------------------------

 -------
 na resp
 -------
 Symbolic Z-matrix:
 Charge =  0 Multiplicity = 1

                         Standard orientation:
 ---------------------------------------------------------------------
 Center     Atomic      Atomic             Coordinates (Angstroms)
 Number     Number       Type             X           Y           Z
 ---------------------------------------------------------------------
      1          6           0       -0.817067   -1.261819   -0.214645
      2          6           0       -2.174225   -1.142842   -0.509024
      3          6           0       -2.880799   -0.043537   -0.021266
      4          6           0       -2.249290    0.925666    0.754834
      5          6           0       -0.889117    0.788284    1.036815
      6          6           0       -0.149183   -0.301062    0.558961
      7          6           0        1.332699   -0.427072    0.831080
      8          6           0        2.203811    0.079259   -0.338712
      9          1           0        1.912202   -0.462014   -1.248879
     10          6           0        3.692643   -0.274658   -0.112048
     11          8           0        4.055021   -1.285925    0.441840
     12          8           0        4.541655    0.630009   -0.621869
     13          7           0        2.099587    1.514006   -0.653939
     14         17           0       -4.594074    0.116634   -0.384525
     15          1           0       -0.270095   -2.124812   -0.587955
     16          1           0       -2.681332   -1.895520   -1.103390
     17          1           0       -2.812882    1.770287    1.136836
     18          1           0       -0.402697    1.538754    1.656093
     19          1           0        1.602051    0.133122    1.736366
     20          1           0        1.609912   -1.468824    1.018626
     21          1           0        1.259585    1.710004   -1.192964
     22          1           0        2.031486    2.062361    0.203305
     23          1           0        3.963662    1.349837   -0.979275
 ---------------------------------------------------------------------

 SCF Done:  E(RHF) =  -1010.30045736     A.U. after   15 cycles

 The electronic state is 1-A.
 Alpha  occ. eigenvalues -- -104.82854 -20.59987 -20.54611 -15.59205 -11.38400
 Alpha  occ. eigenvalues --  -11.31545 -11.30032 -11.26789 -11.26471 -11.26414
 Alpha  occ. eigenvalues --  -11.26168 -11.26011 -11.25371 -10.56696  -8.03553
 Alpha  occ. eigenvalues --   -8.03221  -8.03217  -1.44971  -1.35442  -1.22923
 Alpha  occ. eigenvalues --   -1.19773  -1.13398  -1.05841  -1.04199  -0.99026
 Alpha  occ. eigenvalues --   -0.90434  -0.85962  -0.81419  -0.80015  -0.74889
 Alpha  occ. eigenvalues --   -0.69950  -0.69041  -0.66889  -0.66239  -0.65413
 Alpha  occ. eigenvalues --   -0.62800  -0.61331  -0.61081  -0.59047  -0.58146
 Alpha  occ. eigenvalues --   -0.55575  -0.54566  -0.53765  -0.51472  -0.50948
 Alpha  occ. eigenvalues --   -0.47275  -0.46433  -0.46105  -0.46025  -0.42434
 Alpha  occ. eigenvalues --   -0.36172  -0.33961
 Alpha virt. eigenvalues --    0.11075   0.11408   0.16618   0.18163   0.21120
 Alpha virt. eigenvalues --    0.23405   0.25068   0.26962   0.28006   0.29211
 Alpha virt. eigenvalues --    0.29939   0.30956   0.31803   0.33276   0.33405

 Mulliken charges:
               1
     1  C   -0.220038
     2  C   -0.176581
     3  C   -0.144364
     4  C   -0.177217
     5  C   -0.230542
     6  C    0.037391
     7  C   -0.382738
     8  C   -0.104002
     9  H    0.223478
    10  C    0.855823
    11  O   -0.578930
    12  O   -0.770008
    13  N   -0.930149
    14  Cl   0.000653
    15  H    0.220657
    16  H    0.238615
    17  H    0.236797
    18  H    0.207066
    19  H    0.188073
    20  H    0.238126
    21  H    0.383355
    22  H    0.363769
    23  H    0.520765
 Sum of Mulliken charges =   0.00000

 Dipole moment (field-independent basis, Debye):
    X=             -2.8121    Y=              2.7149    Z=             -0.5773  Tot=              3.9512
 Quadrupole moment (field-independent basis, Debye-Ang):
   XX=           -121.3619   YY=            -78.7795   ZZ=            -81.5673
   XY=              9.2952   XZ=             -2.3494   YZ=              5.9158

 ESP charges:
               1
     1  C   -0.314028
     2  C   -0.014511
     3  C   -0.084096
     4  C    0.020038
     5  C   -0.390880
     6  C    0.377924
     7  C   -0.521868
     8  C    0.421993
     9  H    0.012086
    10  C    0.689307
    11  O   -0.565988
    12  O   -0.585156
    13  N   -1.001256
    14  Cl  -0.107075
    15  H    0.173077
    16  H    0.138776
    17  H    0.133052
    18  H    0.177418
    19  H    0.159251
    20  H    0.131922
    21  H    0.379684
    22  H    0.375947
    23  H    0.394382
 Sum of ESP charges =   0.00000

 Normal termination of Gaussian 09 at Thu Jan 16 21:47:24 2014.
