 Gaussian 09, Revision D.01,
 Gaussian 09:  AM64L-G09RevD.01 24-Apr-2013

 -----------------------------------------
 # hf/gen pop=mk iop(6/33=2,6/41=5,6/42=2)
 -----------------------------------------

 -------
 na resp
 -------
 Symbolic Z-matrix:
 Charge =  0 Multiplicity = 1

                         Standard orientation:
 ---------------------------------------------------------------------
 Center     Atomic      Atomic             Coordinates (Angstroms)
 Number     Number       Type             X           Y           Z
 ---------------------------------------------------------------------
      1          6           0       -1.759105   -1.208444   -0.000029
      2          6           0       -0.367417   -1.208425   -0.000013
      3          6           0        0.326064    0.000003   -0.000012
      4          6           0       -0.367417    1.208427   -0.000021
      5          6           0       -1.759108    1.208445   -0.000004
      6          6           0       -2.481941    0.000001   -0.000002
      7          7           0       -3.859001   -0.000003   -0.000009
      8         35           0        2.241823   -0.000001    0.000009
      9          1           0       -2.294533   -2.155102   -0.000069
     10          1           0        0.175274   -2.147925   -0.000017
     11          1           0        0.175270    2.147930   -0.000040
     12          1           0       -2.294533    2.155104    0.000003
     13          1           0       -4.379363   -0.861123    0.000306
     14          1           0       -4.379369    0.861113    0.000042
 ---------------------------------------------------------------------

 SCF Done:  E(RHF) =  -2854.73455104     A.U. after   14 cycles

 The electronic state is 1-A.
 Alpha  occ. eigenvalues -- -489.83050 -64.37426 -58.54107 -58.53937 -58.53927
 Alpha  occ. eigenvalues --  -15.57296 -11.29460 -11.27884 -11.24962 -11.24959
 Alpha  occ. eigenvalues --  -11.23328 -11.23327  -9.65174  -7.46730  -7.45877
 Alpha  occ. eigenvalues --   -7.45856  -3.21044  -3.20637  -3.20619  -3.19627
 Alpha  occ. eigenvalues --   -3.19627  -1.23274  -1.14506  -1.03260  -1.02286
 Alpha  occ. eigenvalues --   -0.94116  -0.84573  -0.80662  -0.71469  -0.70704
 Alpha  occ. eigenvalues --   -0.63720  -0.61221  -0.59746  -0.59208  -0.54425
 Alpha  occ. eigenvalues --   -0.50333  -0.48670  -0.47660  -0.40167  -0.40057
 Alpha  occ. eigenvalues --   -0.34590  -0.28416
 Alpha virt. eigenvalues --    0.13431   0.15436   0.17448   0.21938   0.25801
 Alpha virt. eigenvalues --    0.26994   0.31050   0.31984   0.34142   0.35991
 Alpha virt. eigenvalues --    0.41985   0.45460   0.47594   0.50362   0.53670

 Mulliken charges:
               1
     1  C   -0.267995
     2  C   -0.159719
     3  C   -0.032620
     4  C   -0.159720
     5  C   -0.267996
     6  C    0.404976
     7  N   -1.006619
     8  Br  -0.163241
     9  H    0.202319
    10  H    0.230618
    11  H    0.230618
    12  H    0.202319
    13  H    0.393530
    14  H    0.393530
 Sum of Mulliken charges =   0.00000

 Dipole moment (field-independent basis, Debye):
    X=             -4.0684    Y=              0.0000    Z=              0.0006  Tot=              4.0684
 Quadrupole moment (field-independent basis, Debye-Ang):
   XX=            -46.5483   YY=            -52.1559   ZZ=            -64.7585
   XY=              0.0000   XZ=             -0.0032   YZ=             -0.0005

 ESP charges:
               1
     1  C   -0.555668
     2  C    0.162739
     3  C   -0.317550
     4  C    0.162730
     5  C   -0.555667
     6  C    0.813609
     7  N   -1.216610
     8  Br  -0.088794
     9  H    0.206829
    10  H    0.114877
    11  H    0.114878
    12  H    0.206836
    13  H    0.475904
    14  H    0.475887
 Sum of ESP charges =   0.00000

 Normal termination of Gaussian 09 at Thu Jan 16 22:36:57 2014.
