 Gaussian 09, Revision D.01,
 Gaussian 09:  AM64L-G09RevD.01 24-Apr-2013

 -----------------------------------------
 # hf/gen pop=mk iop(6/33=2,6/41=5,6/42=2)
 -----------------------------------------

 -------
 na resp
 -------
 Symbolic Z-matrix:
 Charge =  0 Multiplicity = 1

                         Standard orientation:
 ---------------------------------------------------------------------
 Center     Atomic      Atomic             Coordinates (Angstroms)
 Number     Number       Type             X           Y           Z
 ---------------------------------------------------------------------
      1          6           0        1.044286    2.518659    0.000344
      2          6           0        2.428694    2.525499    0.000104
      3          6           0        3.140474    1.318052   -0.000144
      4          6           0        2.404522    0.120020   -0.000059
      5          6           0        1.020949    0.100410    0.000218
      6          6           0        0.301120    1.314861    0.000380
      7          6           0       -1.145743    1.431045    0.000412
      8          6           0       -2.161448    0.526592    0.000505
      9          6           0       -2.203591   -0.965493    0.000952
     10          8           0       -1.308737   -1.794325    0.001189
     11          7           0       -3.564990   -1.263406    0.001093
     12          6           0       -4.380034   -0.145911   -0.000067
     13         16           0       -6.035967   -0.105956   -0.001224
     14          7           0       -3.514806    0.908493    0.000293
     15         35           0        3.383973   -1.529350   -0.000333
     16          8           0        4.488862    1.368192   -0.000432
     17          1           0        0.514615    3.467849    0.000558
     18          1           0        2.990108    3.454029    0.000120
     19          1           0        0.491228   -0.844281    0.000368
     20          1           0       -1.485134    2.467744    0.000273
     21          1           0       -3.930651   -2.205804   -0.000221
     22          1           0       -3.854892    1.859451   -0.000885
     23          1           0        4.833343    0.454596   -0.000602
 ---------------------------------------------------------------------

 SCF Done:  E(RHF) =  -3608.49115044     A.U. after   16 cycles

 The electronic state is 1-A.
 Alpha  occ. eigenvalues -- -489.86473 -91.89974 -64.40845 -58.57525 -58.57360
 Alpha  occ. eigenvalues --  -58.57339 -20.61683 -20.57808 -15.64508 -15.64401
 Alpha  occ. eigenvalues --  -11.40833 -11.40467 -11.34461 -11.32418 -11.31252
 Alpha  occ. eigenvalues --  -11.29970 -11.27598 -11.27419 -11.27092 -11.25660
 Alpha  occ. eigenvalues --   -9.68600  -8.91539  -7.50147  -7.49322  -7.49258
 Alpha  occ. eigenvalues --   -6.59816  -6.59510  -6.59410  -3.24465  -3.24081
 Alpha  occ. eigenvalues --   -3.24018  -3.23053  -3.23051  -1.43525  -1.43350
 Alpha  occ. eigenvalues --   -1.37247  -1.23935  -1.19008  -1.11608  -1.08152
 Alpha  occ. eigenvalues --   -1.05315  -0.99654  -0.98251  -0.93231  -0.87852
 Alpha  occ. eigenvalues --   -0.86329  -0.85014  -0.79298  -0.76322  -0.73770
 Alpha  occ. eigenvalues --   -0.70493  -0.69961  -0.68943  -0.66822  -0.66093
 Alpha  occ. eigenvalues --   -0.63853  -0.61763  -0.60604  -0.59468  -0.58860
 Alpha  occ. eigenvalues --   -0.55661  -0.55646  -0.54484  -0.53198  -0.50260
 Alpha  occ. eigenvalues --   -0.49105  -0.46555  -0.45905  -0.43781  -0.40511
 Alpha  occ. eigenvalues --   -0.35951  -0.35255  -0.34454  -0.29675
 Alpha virt. eigenvalues --    0.02977   0.11047   0.13306   0.15065   0.16876
 Alpha virt. eigenvalues --    0.19347   0.20952   0.23567   0.24423   0.25902
 Alpha virt. eigenvalues --    0.27252   0.27610   0.30794   0.32909   0.35445

 Mulliken charges:
               1
     1  C   -0.192218
     2  C   -0.254819
     3  C    0.483582
     4  C   -0.078465
     5  C   -0.203357
     6  C   -0.023585
     7  C   -0.200516
     8  C    0.218868
     9  C    0.840038
    10  O   -0.604832
    11  N   -0.860385
    12  C    0.521570
    13  S   -0.257059
    14  N   -0.861655
    15  Br  -0.136013
    16  O   -0.794412
    17  H    0.222722
    18  H    0.239737
    19  H    0.348802
    20  H    0.220751
    21  H    0.446392
    22  H    0.432424
    23  H    0.492429
 Sum of Mulliken charges =   0.00000

 Dipole moment (field-independent basis, Debye):
    X=              2.5753    Y=              2.9466    Z=             -0.0025  Tot=              3.9134
 Quadrupole moment (field-independent basis, Debye-Ang):
   XX=           -141.1851   YY=           -101.1185   ZZ=           -116.0621
   XY=             -4.5115   XZ=              0.0024   YZ=              0.0053

 ESP charges:
               1
     1  C   -0.123692
     2  C   -0.398957
     3  C    0.632831
     4  C   -0.424892
     5  C   -0.019922
     6  C    0.182118
     7  C   -0.461053
     8  C    0.145646
     9  C    0.597559
    10  O   -0.562051
    11  N   -0.246367
    12  C    0.047396
    13  S   -0.350607
    14  N   -0.245480
    15  Br  -0.014609
    16  O   -0.603907
    17  H    0.154092
    18  H    0.219806
    19  H    0.224532
    20  H    0.239508
    21  H    0.302631
    22  H    0.297456
    23  H    0.407963
 Sum of ESP charges =   0.00000

 Normal termination of Gaussian 09 at Thu Jan 16 22:40:37 2014.
