 Gaussian 09, Revision D.01,
 Gaussian 09:  AM64L-G09RevD.01 24-Apr-2013

 ------------------------------------------------------------------
 # hf/gen pseudo=read pop=(mk, readradii) iop(6/33=2,6/41=5,6/42=2)
 ------------------------------------------------------------------

 -------
 na resp
 -------
 Symbolic Z-matrix:
 Charge =  0 Multiplicity = 1

                         Standard orientation:
 ---------------------------------------------------------------------
 Center     Atomic      Atomic             Coordinates (Angstroms)
 Number     Number       Type             X           Y           Z
 ---------------------------------------------------------------------
      1          6           0        0.689912   -1.092209   -0.523976
      2          6           0       -0.704700   -1.095428   -0.516951
      3          6           0       -1.393640   -0.000072    0.000180
      4          6           0       -0.704804    1.095225    0.517558
      5          6           0        0.689811    1.091895    0.524982
      6          6           0        1.391016   -0.000152    0.000559
      7          7           0        2.816599    0.000021    0.000765
      8          6           0        3.632509   -1.132807    0.223892
      9          8           0        3.251949   -2.262098    0.443847
     10          6           0        5.049692   -0.654180    0.130396
     11          6           0        5.049391    0.654707   -0.132234
     12          6           0        3.631989    1.133018   -0.223862
     13          8           0        3.250813    2.262159   -0.443473
     14         53           0       -3.537058   -0.000014   -0.000198
     15          1           0        1.226211   -1.943690   -0.923016
     16          1           0       -1.239010   -1.948221   -0.920275
     17          1           0       -1.239174    1.948026    0.920782
     18          1           0        1.226093    1.943278    0.924262
     19          1           0        5.882626   -1.331711    0.267282
     20          1           0        5.882000    1.332430   -0.270141
 ---------------------------------------------------------------------

 SCF Done:  E(RHF) =  -597.509578033     A.U. after   15 cycles

 The electronic state is 1-A.
 Alpha  occ. eigenvalues --  -20.58443 -20.58442 -15.64087 -11.40362 -11.40359
 Alpha  occ. eigenvalues --  -11.30474 -11.29836 -11.29833 -11.29670 -11.25758
 Alpha  occ. eigenvalues --  -11.25755 -11.25280 -11.25278  -1.44072  -1.42056
 Alpha  occ. eigenvalues --   -1.30345  -1.17881  -1.12911  -1.03590  -1.02959
 Alpha  occ. eigenvalues --   -0.94100  -0.90168  -0.86445  -0.83830  -0.81914
 Alpha  occ. eigenvalues --   -0.78420  -0.72423  -0.68684  -0.67684  -0.66771
 Alpha  occ. eigenvalues --   -0.65262  -0.64592  -0.63226  -0.62239  -0.60620
 Alpha  occ. eigenvalues --   -0.60194  -0.56012  -0.53376  -0.52350  -0.49007
 Alpha  occ. eigenvalues --   -0.46073  -0.45471  -0.44879  -0.43153  -0.38587
 Alpha  occ. eigenvalues --   -0.36865  -0.35135  -0.31825
 Alpha virt. eigenvalues --    0.03494   0.10933   0.11551   0.12636   0.23061
 Alpha virt. eigenvalues --    0.23620   0.24099   0.25933   0.27301   0.28685
 Alpha virt. eigenvalues --    0.31437   0.32905   0.34467   0.35087   0.38345

 Mulliken charges:
               1
     1  C   -0.203732
     2  C   -0.146577
     3  C   -0.397531
     4  C   -0.146584
     5  C   -0.203684
     6  C    0.342004
     7  N   -0.927737
     8  C    0.813445
     9  O   -0.565646
    10  C   -0.256374
    11  C   -0.256313
    12  C    0.813336
    13  O   -0.565615
    14  I    0.192509
    15  H    0.252488
    16  H    0.231959
    17  H    0.231962
    18  H    0.252485
    19  H    0.269803
    20  H    0.269802
 Sum of Mulliken charges =   0.00000

 Dipole moment (field-independent basis, Debye):
    X=              4.0171    Y=              0.0007    Z=             -0.0021  Tot=              4.0171
 Quadrupole moment (field-independent basis, Debye-Ang):
   XX=            -69.0780   YY=           -102.5835   ZZ=            -95.6340
   XY=              0.0064   XZ=             -0.0116   YZ=              7.1154

 ESP charges:
               1
     1  C   -0.506145
     2  C    0.300556
     3  C   -0.515415
     4  C    0.300803
     5  C   -0.506399
     6  C    0.527187
     7  N   -0.450721
     8  C    0.700028
     9  O   -0.529770
    10  C   -0.261225
    11  C   -0.262182
    12  C    0.700145
    13  O   -0.529684
    14  I   -0.003908
    15  H    0.229547
    16  H    0.082552
    17  H    0.082492
    18  H    0.229620
    19  H    0.206126
    20  H    0.206392
 Sum of ESP charges =   0.00000

 Normal termination of Gaussian 09 at Fri Jan 17 11:55:02 2014.
