 Gaussian 09, Revision D.01,
 Gaussian 09:  AM64L-G09RevD.01 24-Apr-2013

 ------------------------------------------------------------------
 # hf/gen pseudo=read pop=(mk, readradii) iop(6/33=2,6/41=5,6/42=2)
 ------------------------------------------------------------------

 -------
 na resp
 -------
 Symbolic Z-matrix:
 Charge =  0 Multiplicity = 1

                         Standard orientation:
 ---------------------------------------------------------------------
 Center     Atomic      Atomic             Coordinates (Angstroms)
 Number     Number       Type             X           Y           Z
 ---------------------------------------------------------------------
      1          6           0        2.276445   -1.207979    0.000023
      2          6           0        0.883746   -1.208289    0.000022
      3          6           0        0.188213    0.000001    0.000023
      4          6           0        0.883746    1.208290    0.000027
      5          6           0        2.276446    1.207980    0.000010
      6          6           0        2.999650    0.000001   -0.000010
      7          7           0        4.376482   -0.000001   -0.000043
      8         53           0       -1.958555    0.000000   -0.000007
      9          1           0        2.811250   -2.155105    0.000071
     10          1           0        0.351394   -2.153558    0.000032
     11          1           0        0.351396    2.153559    0.000065
     12          1           0        2.811249    2.155106    0.000018
     13          1           0        4.896626   -0.861333   -0.000094
     14          1           0        4.896628    0.861330    0.000029
 ---------------------------------------------------------------------

 SCF Done:  E(RHF) =  -296.294880455     A.U. after   14 cycles

 The electronic state is 1-A.
 Alpha  occ. eigenvalues --  -15.57341 -11.29500 -11.27533 -11.25130 -11.25126
 Alpha  occ. eigenvalues --  -11.23272 -11.23271  -1.23290  -1.13828  -1.02210
 Alpha  occ. eigenvalues --   -1.00100  -0.87150  -0.84434  -0.79774  -0.71440
 Alpha  occ. eigenvalues --   -0.70625  -0.63244  -0.61029  -0.59220  -0.59129
 Alpha  occ. eigenvalues --   -0.54238  -0.50245  -0.46499  -0.44500  -0.36599
 Alpha  occ. eigenvalues --   -0.35857  -0.34510  -0.28318
 Alpha virt. eigenvalues --    0.12039   0.13510   0.15461   0.21788   0.25789
 Alpha virt. eigenvalues --    0.26073   0.30924   0.32057   0.34272   0.36145
 Alpha virt. eigenvalues --    0.42522   0.45503   0.48089   0.50679   0.53982

 Mulliken charges:
               1
     1  C   -0.270973
     2  C   -0.113398
     3  C   -0.431814
     4  C   -0.113398
     5  C   -0.270973
     6  C    0.409033
     7  N   -1.005352
     8  I    0.161123
     9  H    0.200548
    10  H    0.223593
    11  H    0.223593
    12  H    0.200548
    13  H    0.393735
    14  H    0.393735
 Sum of Mulliken charges =   0.00000

 Dipole moment (field-independent basis, Debye):
    X=              4.0078    Y=              0.0000    Z=              0.0001  Tot=              4.0078
 Quadrupole moment (field-independent basis, Debye-Ang):
   XX=            -43.7743   YY=            -54.4555   ZZ=            -67.3474
   XY=              0.0000   XZ=              0.0003   YZ=              0.0002

 ESP charges:
               1
     1  C   -0.616326
     2  C    0.294524
     3  C   -0.539602
     4  C    0.294526
     5  C   -0.616328
     6  C    0.886624
     7  N   -1.248914
     8  I   -0.034426
     9  H    0.208813
    10  H    0.096969
    11  H    0.096969
    12  H    0.208814
    13  H    0.484178
    14  H    0.484178
 Sum of ESP charges =   0.00000

 Normal termination of Gaussian 09 at Fri Jan 17 11:54:38 2014.
