 Gaussian 09, Revision D.01,
 Gaussian 09:  AM64L-G09RevD.01 24-Apr-2013

 -----------------------------------------
 # hf/gen pop=mk iop(6/33=2,6/41=5,6/42=2)
 -----------------------------------------

 -------
 na resp
 -------
 Symbolic Z-matrix:
 Charge =  0 Multiplicity = 1

                         Standard orientation:
 ---------------------------------------------------------------------
 Center     Atomic      Atomic             Coordinates (Angstroms)
 Number     Number       Type             X           Y           Z
 ---------------------------------------------------------------------
      1          6           0       -2.286208    2.178581    0.002537
      2          6           0       -0.978464    1.430232   -0.010199
      3          6           0        0.241012    2.115344   -0.027412
      4          6           0        1.468513    1.447114   -0.039995
      5          6           0        1.527271    0.042840   -0.040659
      6          6           0        0.309211   -0.642613   -0.019909
      7          6           0       -0.907624    0.032849   -0.005279
      8         35           0       -2.523573   -1.003425    0.020070
      9          6           0        2.858534   -0.698318   -0.043271
     10          6           0        2.960783   -1.701884   -1.206478
     11          6           0        3.113273   -1.389991    1.310317
     12          8           0        2.653876    2.137696   -0.050596
     13          1           0       -2.878767    1.926153    0.889592
     14          1           0       -2.119442    3.259802   -0.003817
     15          1           0       -2.899814    1.919098   -0.868028
     16          1           0        0.229540    3.204739   -0.030324
     17          1           0        0.304739   -1.727587   -0.016011
     18          1           0        3.643596    0.050910   -0.183613
     19          1           0        2.805544   -1.208466   -2.172042
     20          1           0        2.218505   -2.503902   -1.116725
     21          1           0        3.951753   -2.170882   -1.218824
     22          1           0        4.095048   -1.878653    1.315001
     23          1           0        3.088039   -0.668597    2.134157
     24          1           0        2.356131   -2.157130    1.513366
     25          1           0        2.461352    3.087888   -0.058319
 ---------------------------------------------------------------------

 SCF Done:  E(RHF) =  -3030.70250727     A.U. after   15 cycles

 The electronic state is 1-A.
 Alpha  occ. eigenvalues -- -489.83617 -64.37983 -58.54666 -58.54497 -58.54486
 Alpha  occ. eigenvalues --  -20.59835 -11.31042 -11.28726 -11.26311 -11.24885
 Alpha  occ. eigenvalues --  -11.24139 -11.24089 -11.23206 -11.22940 -11.21248
 Alpha  occ. eigenvalues --  -11.21172  -9.65728  -7.47278  -7.46427  -7.46420
 Alpha  occ. eigenvalues --   -3.21591  -3.21180  -3.21178  -3.20188  -3.20187
 Alpha  occ. eigenvalues --   -1.40759  -1.17099  -1.09499  -1.04493  -1.02823
 Alpha  occ. eigenvalues --   -0.96185  -0.93467  -0.92740  -0.85081  -0.81932
 Alpha  occ. eigenvalues --   -0.76378  -0.72854  -0.68489  -0.62840  -0.60527
 Alpha  occ. eigenvalues --   -0.60272  -0.60030  -0.59155  -0.58443  -0.57704
 Alpha  occ. eigenvalues --   -0.55622  -0.54105  -0.53575  -0.52626  -0.49679
 Alpha  occ. eigenvalues --   -0.49471  -0.47652  -0.46869  -0.46110  -0.41675
 Alpha  occ. eigenvalues --   -0.40587  -0.33593  -0.30473
 Alpha virt. eigenvalues --    0.13017   0.14214   0.17338   0.21296   0.23346
 Alpha virt. eigenvalues --    0.25056   0.27660   0.28072   0.29928   0.30067
 Alpha virt. eigenvalues --    0.31236   0.33057   0.33803   0.34628   0.35170

 Mulliken charges:
               1
     1  C   -0.521183
     2  C    0.069849
     3  C   -0.319103
     4  C    0.442223
     5  C   -0.012877
     6  C   -0.180476
     7  C   -0.035240
     8  Br  -0.159335
     9  C   -0.197257
    10  C   -0.480050
    11  C   -0.475200
    12  O   -0.813071
    13  H    0.200206
    14  H    0.175965
    15  H    0.200175
    16  H    0.197436
    17  H    0.233466
    18  H    0.215469
    19  H    0.174210
    20  H    0.156849
    21  H    0.165193
    22  H    0.163020
    23  H    0.174488
    24  H    0.158127
    25  H    0.467117
 Sum of Mulliken charges =   0.00000

 Dipole moment (field-independent basis, Debye):
    X=              0.8834    Y=              2.3707    Z=             -0.0406  Tot=              2.5303
 Quadrupole moment (field-independent basis, Debye-Ang):
   XX=            -87.8132   YY=            -73.5690   ZZ=            -88.9899
   XY=             -1.7557   XZ=             -0.1310   YZ=             -0.1121

 ESP charges:
               1
     1  C   -0.420851
     2  C    0.564521
     3  C   -0.679856
     4  C    0.535802
     5  C   -0.323515
     6  C    0.103507
     7  C   -0.413331
     8  Br  -0.061748
     9  C    0.529831
    10  C   -0.518787
    11  C   -0.471573
    12  O   -0.670170
    13  H    0.118535
    14  H    0.116319
    15  H    0.118138
    16  H    0.220154
    17  H    0.112643
    18  H   -0.001691
    19  H    0.114422
    20  H    0.126217
    21  H    0.115841
    22  H    0.101809
    23  H    0.108346
    24  H    0.111740
    25  H    0.463696
 Sum of ESP charges =   0.00000

 Normal termination of Gaussian 09 at Thu Jan 16 22:39:21 2014.
