 Gaussian 09, Revision D.01,
 Gaussian 09:  AM64L-G09RevD.01 24-Apr-2013

 -----------------------------------------
 # hf/gen pop=mk iop(6/33=2,6/41=5,6/42=2)
 -----------------------------------------

 -------
 na resp
 -------
 Symbolic Z-matrix:
 Charge =  0 Multiplicity = 1

                         Standard orientation:
 ---------------------------------------------------------------------
 Center     Atomic      Atomic             Coordinates (Angstroms)
 Number     Number       Type             X           Y           Z
 ---------------------------------------------------------------------
      1          6           0        1.160532    0.803914    0.000078
      2          6           0        2.529170    1.069323    0.000078
      3          6           0        3.449019    0.023688   -0.000002
      4          6           0        3.012686   -1.300051   -0.000133
      5          6           0        1.648063   -1.566529   -0.000124
      6          6           0        0.704959   -0.524037   -0.000002
      7          7           0       -0.648760   -0.900063    0.000058
      8          6           0       -1.808631   -0.174236    0.000029
      9          7           0       -1.769651    1.171519   -0.000109
     10          6           0       -2.979593    1.739009   -0.000098
     11          7           0       -4.158609    1.131633   -0.000049
     12          6           0       -4.063794   -0.222300   -0.000045
     13          7           0       -2.924571   -0.926178    0.000135
     14          7           0       -5.227078   -0.909954   -0.000502
     15         17           0        5.174448    0.372439    0.000051
     16          1           0        0.443464    1.612440    0.000065
     17          1           0        2.877376    2.096893    0.000182
     18          1           0        3.729999   -2.113678   -0.000260
     19          1           0        1.309166   -2.600332   -0.000260
     20          1           0       -0.829976   -1.895915    0.000039
     21          1           0       -2.995922    2.828293   -0.000031
     22          1           0       -6.097853   -0.403363    0.001966
     23          1           0       -5.215661   -1.917189    0.002012
 ---------------------------------------------------------------------

 SCF Done:  E(RHF) =  -1077.23801284     A.U. after   16 cycles

 The electronic state is 1-A.
 Alpha  occ. eigenvalues -- -104.81460 -15.61206 -15.59303 -15.56376 -15.56230
 Alpha  occ. eigenvalues --  -15.56215 -11.37924 -11.37502 -11.33436 -11.30063
 Alpha  occ. eigenvalues --  -11.29531 -11.25364 -11.25012 -11.24794 -11.23624
 Alpha  occ. eigenvalues --  -10.55293  -8.02150  -8.01825  -8.01817  -1.37013
 Alpha  occ. eigenvalues --   -1.29394  -1.24642  -1.19661  -1.17157  -1.16052
 Alpha  occ. eigenvalues --   -1.10270  -1.02957  -0.99550  -0.91681  -0.89344
 Alpha  occ. eigenvalues --   -0.85100  -0.81761  -0.77766  -0.76026  -0.71777
 Alpha  occ. eigenvalues --   -0.67969  -0.66742  -0.65375  -0.63430  -0.63115
 Alpha  occ. eigenvalues --   -0.61188  -0.60520  -0.59863  -0.56760  -0.56722
 Alpha  occ. eigenvalues --   -0.52714  -0.52268  -0.51262  -0.49067  -0.45634
 Alpha  occ. eigenvalues --   -0.44839  -0.42999  -0.42501  -0.40311  -0.37166
 Alpha  occ. eigenvalues --   -0.34857  -0.29944
 Alpha virt. eigenvalues --    0.11084   0.12690   0.13756   0.18054   0.19622
 Alpha virt. eigenvalues --    0.22643   0.23388   0.27174   0.27517   0.28996
 Alpha virt. eigenvalues --    0.30084   0.32516   0.33863   0.36108   0.36260

 Mulliken charges:
               1
     1  C   -0.232339
     2  C   -0.173337
     3  C   -0.156523
     4  C   -0.169916
     5  C   -0.261633
     6  C    0.388635
     7  N   -0.982448
     8  C    0.924033
     9  N   -0.664915
    10  C    0.325315
    11  N   -0.630201
    12  C    0.864915
    13  N   -0.699179
    14  N   -0.962538
    15  Cl  -0.011176
    16  H    0.287678
    17  H    0.234166
    18  H    0.234027
    19  H    0.209982
    20  H    0.417322
    21  H    0.228339
    22  H    0.417026
    23  H    0.412765
 Sum of Mulliken charges =   0.00000

 Dipole moment (field-independent basis, Debye):
    X=             -3.6213    Y=             -2.1930    Z=              0.0088  Tot=              4.2336
 Quadrupole moment (field-independent basis, Debye-Ang):
   XX=            -90.0960   YY=            -81.9604   ZZ=            -97.8809
   XY=              4.4968   XZ=             -0.0538   YZ=             -0.0102

 ESP charges:
               1
     1  C   -0.399876
     2  C    0.019493
     3  C   -0.120915
     4  C    0.062804
     5  C   -0.485451
     6  C    0.598398
     7  N   -0.865202
     8  C    1.196812
     9  N   -0.893222
    10  C    0.688503
    11  N   -0.929977
    12  C    1.308706
    13  N   -1.038345
    14  N   -1.193847
    15  Cl  -0.119791
    16  H    0.220726
    17  H    0.136834
    18  H    0.129748
    19  H    0.206629
    20  H    0.421497
    21  H    0.074596
    22  H    0.486545
    23  H    0.495333
 Sum of ESP charges =   0.00000

 Normal termination of Gaussian 09 at Thu Jan 16 21:49:35 2014.
