 Gaussian 09, Revision D.01,
 Gaussian 09:  AM64L-G09RevD.01 24-Apr-2013

 ------------------------------------------------------------------
 # hf/gen pseudo=read pop=(mk, readradii) iop(6/33=2,6/41=5,6/42=2)
 ------------------------------------------------------------------

 -------
 na resp
 -------
 Symbolic Z-matrix:
 Charge =  0 Multiplicity = 1

                         Standard orientation:
 ---------------------------------------------------------------------
 Center     Atomic      Atomic             Coordinates (Angstroms)
 Number     Number       Type             X           Y           Z
 ---------------------------------------------------------------------
      1          6           0       -0.497927    2.210195    0.753168
      2          6           0        0.588283    1.380648    0.488311
      3          6           0        0.378654    0.072689    0.031117
      4          6           0       -0.928975   -0.391116   -0.149469
      5          6           0       -2.006781    0.450868    0.123901
      6          6           0       -1.808138    1.753115    0.573982
      7         53           0       -4.003321   -0.281912   -0.161355
      8          6           0        1.537506   -0.858848   -0.261494
      9          1           0        1.138532   -1.793957   -0.675858
     10          6           0        3.937035   -0.611104   -0.840786
     11          1           0        4.470963   -0.977477   -1.726601
     12          6           0        3.951260   -1.674687    0.263147
     13         16           0        2.478943   -1.274411    1.274876
     14          6           0        4.685431    0.668026   -0.387826
     15          8           0        4.016807    1.800829   -0.642900
     16          1           0       -0.331153    3.223509    1.107669
     17          1           0        1.600134    1.742031    0.642455
     18          1           0       -1.099434   -1.403838   -0.500863
     19          1           0       -2.649735    2.403986    0.783887
     20          1           0        3.873547   -2.685848   -0.148539
     21          1           0        4.854574   -1.594799    0.870406
     22          7           0        2.537970   -0.281410   -1.196416
     23          1           0        3.145054    1.495789   -1.003790
     24          1           0        2.319819   -0.572879   -2.145544
     25          8           0        5.784039    0.632487    0.113050
 ---------------------------------------------------------------------

 SCF Done:  E(RHF) =  -997.339132512     A.U. after   16 cycles

 The electronic state is 1-A.
 Alpha  occ. eigenvalues --  -91.95417 -20.60494 -20.54833 -15.60644 -11.38707
 Alpha  occ. eigenvalues --  -11.32838 -11.31012 -11.30714 -11.28283 -11.27111
 Alpha  occ. eigenvalues --  -11.26688 -11.26401 -11.25855 -11.25675  -8.96925
 Alpha  occ. eigenvalues --   -6.65099  -6.64999  -6.64764  -1.45368  -1.35827
 Alpha  occ. eigenvalues --   -1.27056  -1.18020  -1.08081  -1.07185  -1.04338
 Alpha  occ. eigenvalues --   -1.00713  -0.90033  -0.89178  -0.85498  -0.83851
 Alpha  occ. eigenvalues --   -0.80312  -0.78284  -0.74384  -0.72642  -0.70975
 Alpha  occ. eigenvalues --   -0.67171  -0.66127  -0.64145  -0.63078  -0.61799
 Alpha  occ. eigenvalues --   -0.61139  -0.58633  -0.56870  -0.56603  -0.54935
 Alpha  occ. eigenvalues --   -0.54806  -0.52710  -0.50828  -0.46980  -0.46796
 Alpha  occ. eigenvalues --   -0.46368  -0.45395  -0.41824  -0.40178  -0.37600
 Alpha  occ. eigenvalues --   -0.36772  -0.35513  -0.33140
 Alpha virt. eigenvalues --    0.10105   0.10297   0.11617   0.15362   0.16226
 Alpha virt. eigenvalues --    0.20267   0.23015   0.24512   0.24757   0.26313
 Alpha virt. eigenvalues --    0.26771   0.28856   0.29789   0.30548   0.31547

 Mulliken charges:
               1
     1  C   -0.204062
     2  C   -0.203226
     3  C    0.043167
     4  C   -0.158153
     5  C   -0.395204
     6  C   -0.142662
     7  I    0.194499
     8  C   -0.175999
     9  H    0.211313
    10  C   -0.086396
    11  H    0.229085
    12  C   -0.518193
    13  S    0.179867
    14  C    0.857328
    15  O   -0.770345
    16  H    0.224665
    17  H    0.244352
    18  H    0.226703
    19  H    0.231897
    20  H    0.211224
    21  H    0.263359
    22  N   -0.796571
    23  H    0.529447
    24  H    0.380942
    25  O   -0.577036
 Sum of Mulliken charges =   0.00000

 Dipole moment (field-independent basis, Debye):
    X=             -2.1887    Y=             -2.4437    Z=             -3.1372  Tot=              4.5392
 Quadrupole moment (field-independent basis, Debye-Ang):
   XX=           -140.8814   YY=           -105.0219   ZZ=           -107.8328
   XY=            -18.2751   XZ=            -10.6579   YZ=              6.6723

 ESP charges:
               1
     1  C   -0.315595
     2  C    0.038086
     3  C   -0.020253
     4  C    0.282954
     5  C   -0.488967
     6  C    0.181297
     7  I    0.006672
     8  C   -0.200790
     9  H    0.215777
    10  C    0.087883
    11  H    0.076367
    12  C   -0.145518
    13  S   -0.127818
    14  C    0.687392
    15  O   -0.514182
    16  H    0.175694
    17  H    0.120189
    18  H    0.019726
    19  H    0.107073
    20  H    0.092665
    21  H    0.159662
    22  N   -0.520854
    23  H    0.306182
    24  H    0.338090
    25  O   -0.561731
 Sum of ESP charges =   0.00000

 Normal termination of Gaussian 09 at Fri Jan 17 11:57:36 2014.
