 Gaussian 09, Revision D.01,
 Gaussian 09:  AM64L-G09RevD.01 24-Apr-2013

 -----------------------------------------
 # hf/gen pop=mk iop(6/33=2,6/41=5,6/42=2)
 -----------------------------------------

 -------
 na resp
 -------
 Symbolic Z-matrix:
 Charge =  0 Multiplicity = 1

                         Standard orientation:
 ---------------------------------------------------------------------
 Center     Atomic      Atomic             Coordinates (Angstroms)
 Number     Number       Type             X           Y           Z
 ---------------------------------------------------------------------
      1          6           0       -1.797760    1.706873   -0.171977
      2          6           0       -0.567689    2.361236   -0.236043
      3          6           0        0.614579    1.632482   -0.150594
      4          6           0        0.558165    0.235339    0.002025
      5          6           0       -0.664154   -0.431614    0.076641
      6          6           0       -1.832530    0.321815   -0.013753
      7         35           0       -3.517392   -0.568068    0.083419
      8          7           0        1.802393   -0.431045    0.055522
      9          6           0        2.985037    0.253067    0.176411
     10          7           0        4.025954   -0.506029    0.099188
     11          8           0        3.491667   -1.817077   -0.088319
     12          6           0        2.119336   -1.781691   -0.121942
     13          8           0        1.391959   -2.729519   -0.268096
     14          6           0        2.919804    1.725894    0.430541
     15          8           0        1.815933    2.291856   -0.283157
     16          1           0       -2.720725    2.271073   -0.239354
     17          1           0       -0.510719    3.437589   -0.359900
     18          1           0       -0.688417   -1.508591    0.180401
     19          1           0        2.803119    1.913429    1.508024
     20          1           0        3.821849    2.225926    0.076921
 ---------------------------------------------------------------------

 SCF Done:  E(RHF) =  -3246.75365935     A.U. after   16 cycles

 The electronic state is 1-A.
 Alpha  occ. eigenvalues -- -489.85581 -64.39956 -58.56642 -58.56462 -58.56453
 Alpha  occ. eigenvalues --  -20.66678 -20.63726 -20.57470 -15.67588 -15.66428
 Alpha  occ. eigenvalues --  -11.45014 -11.37339 -11.35288 -11.34316 -11.33268
 Alpha  occ. eigenvalues --  -11.32085 -11.27925 -11.27618 -11.27325  -9.67715
 Alpha  occ. eigenvalues --   -7.49293  -7.48389  -7.48384  -3.23617  -3.23181
 Alpha  occ. eigenvalues --   -3.23179  -3.22129  -3.22129  -1.53503  -1.45875
 Alpha  occ. eigenvalues --   -1.41190  -1.33661  -1.21291  -1.18151  -1.08886
 Alpha  occ. eigenvalues --   -1.06441  -1.03055  -0.98105  -0.92200  -0.89734
 Alpha  occ. eigenvalues --   -0.84488  -0.80621  -0.77734  -0.74252  -0.72519
 Alpha  occ. eigenvalues --   -0.70583  -0.70374  -0.67966  -0.65637  -0.64225
 Alpha  occ. eigenvalues --   -0.64057  -0.61063  -0.59403  -0.57971  -0.56695
 Alpha  occ. eigenvalues --   -0.55164  -0.54545  -0.53334  -0.52061  -0.51804
 Alpha  occ. eigenvalues --   -0.46940  -0.44160  -0.42525  -0.41682  -0.36018
 Alpha  occ. eigenvalues --   -0.33425
 Alpha virt. eigenvalues --    0.09304   0.10412   0.13494   0.15125   0.20809
 Alpha virt. eigenvalues --    0.22660   0.23113   0.24953   0.27531   0.29061
 Alpha virt. eigenvalues --    0.30102   0.32069   0.33779   0.35620   0.36780

 Mulliken charges:
               1
     1  C   -0.179322
     2  C   -0.239025
     3  C    0.403643
     4  C    0.331240
     5  C   -0.193677
     6  C   -0.011111
     7  Br  -0.113622
     8  N   -0.917723
     9  C    0.583841
    10  N   -0.181311
    11  O   -0.553265
    12  C    1.126163
    13  O   -0.585630
    14  C   -0.035384
    15  O   -0.707246
    16  H    0.246553
    17  H    0.246233
    18  H    0.307122
    19  H    0.223041
    20  H    0.249479
 Sum of Mulliken charges =   0.00000

 Dipole moment (field-independent basis, Debye):
    X=             -0.3766    Y=              5.5888    Z=              1.3924  Tot=              5.7719
 Quadrupole moment (field-independent basis, Debye-Ang):
   XX=           -104.4783   YY=           -101.9104   ZZ=            -97.3789
   XY=              9.6712   XZ=              3.8448   YZ=              0.2881

 ESP charges:
               1
     1  C    0.148110
     2  C   -0.454902
     3  C    0.523652
     4  C   -0.259446
     5  C    0.097144
     6  C   -0.298467
     7  Br  -0.030152
     8  N   -0.036349
     9  C    0.415391
    10  N   -0.386104
    11  O   -0.221023
    12  C    0.719435
    13  O   -0.546869
    14  C   -0.026308
    15  O   -0.392375
    16  H    0.117913
    17  H    0.217081
    18  H    0.151685
    19  H    0.099055
    20  H    0.162529
 Sum of ESP charges =   0.00000

 Normal termination of Gaussian 09 at Thu Jan 16 22:40:16 2014.
