 Gaussian 09, Revision D.01,
 Gaussian 09:  AM64L-G09RevD.01 24-Apr-2013

 ------------------------------------------------------------------
 # hf/gen pseudo=read pop=(mk, readradii) iop(6/33=2,6/41=5,6/42=2)
 ------------------------------------------------------------------

 -------
 na resp
 -------
 Symbolic Z-matrix:
 Charge =  0 Multiplicity = 1

                         Standard orientation:
 ---------------------------------------------------------------------
 Center     Atomic      Atomic             Coordinates (Angstroms)
 Number     Number       Type             X           Y           Z
 ---------------------------------------------------------------------
      1          6           0        2.301388    3.277517   -0.452010
      2          6           0        3.487610    2.604359   -0.164446
      3          6           0        3.477767    1.222088    0.031273
      4          6           0        2.282846    0.508513   -0.071950
      5          6           0        1.078631    1.167060   -0.357011
      6          6           0        1.110105    2.560382   -0.539960
      7          6           0       -0.240094    0.452669   -0.552468
      8          8           0       -0.386864   -0.447557   -1.363118
      9          7           0       -1.246654    0.960705    0.244059
     10          6           0       -2.606058    0.591169    0.294426
     11          6           0       -3.417838    1.244921    1.237639
     12          6           0       -4.771241    0.933340    1.332567
     13          6           0       -5.343278   -0.027660    0.497363
     14          6           0       -4.515905   -0.658108   -0.424577
     15          6           0       -3.160861   -0.378580   -0.552675
     16          9           0       -5.049223   -1.591032   -1.239979
     17         53           0        2.379979   -1.603723    0.297174
     18          1           0        2.301384    4.351888   -0.610702
     19          1           0        4.425474    3.147619   -0.089943
     20          1           0        4.400017    0.702234    0.265411
     21          1           0        0.184951    3.076920   -0.782142
     22          1           0       -0.962010    1.652929    0.924014
     23          1           0       -2.985646    1.996471    1.894257
     24          1           0       -5.387829    1.445484    2.065519
     25          1           0       -6.394341   -0.288810    0.550611
     26          1           0       -2.554841   -0.898634   -1.279956
 ---------------------------------------------------------------------

 SCF Done:  E(RHF) =  -737.433330949     A.U. after   17 cycles

 The electronic state is 1-A.
 Alpha  occ. eigenvalues --  -26.29818 -20.54693 -15.61930 -11.38131 -11.33008
 Alpha  occ. eigenvalues --  -11.31405 -11.30490 -11.28074 -11.27015 -11.26674
 Alpha  occ. eigenvalues --  -11.26518 -11.26292 -11.25434 -11.24269 -11.23614
 Alpha  occ. eigenvalues --  -11.23235  -1.61290  -1.39981  -1.26853  -1.18442
 Alpha  occ. eigenvalues --   -1.15208  -1.06338  -1.04894  -1.02505  -1.01708
 Alpha  occ. eigenvalues --   -0.91116  -0.88463  -0.85970  -0.84690  -0.82217
 Alpha  occ. eigenvalues --   -0.79387  -0.75643  -0.72913  -0.69410  -0.68427
 Alpha  occ. eigenvalues --   -0.67918  -0.67611  -0.66676  -0.65479  -0.63960
 Alpha  occ. eigenvalues --   -0.61167  -0.60358  -0.59536  -0.58470  -0.57545
 Alpha  occ. eigenvalues --   -0.54327  -0.54093  -0.53326  -0.52099  -0.51049
 Alpha  occ. eigenvalues --   -0.46563  -0.44673  -0.43672  -0.40361  -0.36629
 Alpha  occ. eigenvalues --   -0.36356  -0.34132  -0.33332  -0.31521
 Alpha virt. eigenvalues --    0.09076   0.10256   0.11031   0.13268   0.14347
 Alpha virt. eigenvalues --    0.21248   0.21597   0.23269   0.24629   0.27666
 Alpha virt. eigenvalues --    0.30313   0.30704   0.31316   0.31698   0.32631

 Mulliken charges:
               1
     1  C   -0.196429
     2  C   -0.191709
     3  C   -0.141725
     4  C   -0.395531
     5  C   -0.030128
     6  C   -0.209771
     7  C    0.785686
     8  O   -0.589710
     9  N   -0.941558
    10  C    0.395034
    11  C   -0.277179
    12  C   -0.176733
    13  C   -0.303100
    14  C    0.553002
    15  C   -0.342839
    16  F   -0.450644
    17  I    0.246329
    18  H    0.222532
    19  H    0.223019
    20  H    0.233306
    21  H    0.231415
    22  H    0.408482
    23  H    0.201443
    24  H    0.217268
    25  H    0.226274
    26  H    0.303266
 Sum of Mulliken charges =   0.00000

 Dipole moment (field-independent basis, Debye):
    X=              1.7676    Y=              5.5104    Z=              3.2765  Tot=              6.6502
 Quadrupole moment (field-independent basis, Debye-Ang):
   XX=           -101.9126   YY=           -100.7301   ZZ=           -116.4389
   XY=             -0.4953   XZ=             -7.3418   YZ=             -0.5656

 ESP charges:
               1
     1  C   -0.070012
     2  C   -0.224865
     3  C    0.167491
     4  C   -0.457672
     5  C    0.289384
     6  C   -0.264957
     7  C    0.652347
     8  O   -0.553179
     9  N   -0.677092
    10  C    0.575085
    11  C   -0.521071
    12  C    0.034235
    13  C   -0.432217
    14  C    0.493425
    15  C   -0.523264
    16  F   -0.232766
    17  I    0.035386
    18  H    0.145277
    19  H    0.158461
    20  H    0.093044
    21  H    0.152752
    22  H    0.325788
    23  H    0.216085
    24  H    0.143857
    25  H    0.205997
    26  H    0.268479
 Sum of ESP charges =   0.00000

 Normal termination of Gaussian 09 at Fri Jan 17 11:58:02 2014.
