 Gaussian 09, Revision D.01,
 Gaussian 09:  AM64L-G09RevD.01 24-Apr-2013

 -----------------------------------------
 # hf/gen pop=mk iop(6/33=2,6/41=5,6/42=2)
 -----------------------------------------

 -------
 na resp
 -------
 Symbolic Z-matrix:
 Charge =  0 Multiplicity = 1

                         Standard orientation:
 ---------------------------------------------------------------------
 Center     Atomic      Atomic             Coordinates (Angstroms)
 Number     Number       Type             X           Y           Z
 ---------------------------------------------------------------------
      1          6           0        1.143844   -1.504486    0.103716
      2          6           0       -0.241325   -1.635398    0.107888
      3          6           0       -1.085933   -0.516514    0.045736
      4          6           0       -0.502688    0.759637   -0.032716
      5          6           0        0.881355    0.914224   -0.050615
      6          6           0        1.679300   -0.223199    0.023541
      7          7           0        3.145370   -0.057949    0.009031
      8          8           0        3.829820   -1.077825    0.066703
      9          8           0        3.589029    1.086141   -0.061382
     10         17           0       -1.483437    2.201070   -0.163222
     11          6           0       -2.582898   -0.719610    0.143555
     12          8           0       -3.263729   -0.156478    0.982190
     13          7           0       -3.082579   -1.647915   -0.733272
     14          1           0        1.801283   -2.362538    0.162194
     15          1           0       -0.686869   -2.622587    0.181311
     16          1           0        1.336549    1.893405   -0.122491
     17          1           0       -2.573908   -1.895240   -1.570243
     18          1           0       -4.089062   -1.752817   -0.753039
 ---------------------------------------------------------------------

 SCF Done:  E(RHF) =  -1060.83203656     A.U. after   16 cycles

 The electronic state is 1-A.
 Alpha  occ. eigenvalues -- -104.84159 -20.62182 -20.62142 -20.55333 -15.87219
 Alpha  occ. eigenvalues --  -15.60986 -11.38944 -11.34700 -11.33506 -11.30715
 Alpha  occ. eigenvalues --  -11.29817 -11.29547 -11.29260 -10.57995  -8.04857
 Alpha  occ. eigenvalues --   -8.04507  -8.04495  -1.61467  -1.40955  -1.40580
 Alpha  occ. eigenvalues --   -1.24103  -1.22785  -1.16253  -1.10882  -1.04238
 Alpha  occ. eigenvalues --   -0.99555  -0.88081  -0.87191  -0.81622  -0.78529
 Alpha  occ. eigenvalues --   -0.76130  -0.74019  -0.72811  -0.70930  -0.68671
 Alpha  occ. eigenvalues --   -0.66292  -0.64828  -0.62716  -0.59942  -0.58977
 Alpha  occ. eigenvalues --   -0.56761  -0.54952  -0.50791  -0.50358  -0.49694
 Alpha  occ. eigenvalues --   -0.47894  -0.46167  -0.44739  -0.43328  -0.39502
 Alpha  occ. eigenvalues --   -0.37157
 Alpha virt. eigenvalues --    0.02468   0.08814   0.12972   0.17213   0.18836
 Alpha virt. eigenvalues --    0.21722   0.24331   0.26158   0.27836   0.31253
 Alpha virt. eigenvalues --    0.32298   0.34973   0.38760   0.41374   0.44183

 Mulliken charges:
               1
     1  C   -0.167179
     2  C   -0.212947
     3  C   -0.051915
     4  C   -0.155082
     5  C   -0.153341
     6  C    0.181319
     7  N    0.539479
     8  O   -0.483575
     9  O   -0.481877
    10  Cl   0.072423
    11  C    0.768707
    12  O   -0.576099
    13  N   -0.941641
    14  H    0.288392
    15  H    0.254011
    16  H    0.304683
    17  H    0.401525
    18  H    0.413115
 Sum of Mulliken charges =   0.00000

 Dipole moment (field-independent basis, Debye):
    X=             -2.5843    Y=             -3.4708    Z=             -3.0715  Tot=              5.3065
 Quadrupole moment (field-independent basis, Debye-Ang):
   XX=           -101.4644   YY=            -74.5789   ZZ=            -80.4525
   XY=              6.9309   XZ=             10.8791   YZ=              2.6930

 ESP charges:
               1
     1  C   -0.234770
     2  C   -0.144804
     3  C    0.072990
     4  C   -0.087569
     5  C   -0.093283
     6  C    0.104411
     7  N    0.679144
     8  O   -0.426408
     9  O   -0.419503
    10  Cl  -0.043399
    11  C    0.746117
    12  O   -0.555261
    13  N   -1.009697
    14  H    0.210709
    15  H    0.170299
    16  H    0.170015
    17  H    0.407327
    18  H    0.453681
 Sum of ESP charges =   0.00000

 Normal termination of Gaussian 09 at Thu Jan 16 21:47:19 2014.
