 Gaussian 09, Revision D.01,
 Gaussian 09:  AM64L-G09RevD.01 24-Apr-2013

 -----------------------------------------
 # hf/gen pop=mk iop(6/33=2,6/41=5,6/42=2)
 -----------------------------------------

 -------
 na resp
 -------
 Symbolic Z-matrix:
 Charge =  0 Multiplicity = 1

                         Standard orientation:
 ---------------------------------------------------------------------
 Center     Atomic      Atomic             Coordinates (Angstroms)
 Number     Number       Type             X           Y           Z
 ---------------------------------------------------------------------
      1          6           0       -0.843883    0.148512    2.546340
      2          6           0       -1.367544   -0.147201    1.172254
      3          6           0       -0.636239   -0.052837    0.023513
      4          6           0       -1.264025   -0.402933   -1.262501
      5          8           0       -0.695722   -0.389867   -2.345583
      6          7           0       -2.615894   -0.775502   -1.176417
      7          1           0       -3.071582   -1.019757   -2.049008
      8          6           0       -3.392629   -0.879038   -0.035772
      9          8           0       -4.559613   -1.222124   -0.025116
     10          7           0       -2.690583   -0.546591    1.119503
     11          1           0       -3.232888   -0.617562    1.970485
     12          7           0        0.732033    0.351596    0.035205
     13          6           0        0.980843    1.646887   -0.622454
     14          6           0        0.600424    2.813082    0.280981
     15          9           0        0.852943    4.001624   -0.394767
     16          6           0        1.681744   -0.705517   -0.362696
     17          6           0        2.925813   -0.630025    0.521260
     18         17           0        4.131102   -1.903208    0.047331
     19          1           0       -1.422227    0.953081    3.017783
     20          1           0       -0.925569   -0.737478    3.188531
     21          1           0        0.201616    0.448573    2.487337
     22          1           0        2.050855    1.723374   -0.840415
     23          1           0        0.450941    1.729749   -1.580349
     24          1           0       -0.464248    2.785706    0.544087
     25          1           0        1.192457    2.799699    1.204448
     26          1           0        1.956750   -0.634028   -1.422234
     27          1           0        1.203437   -1.677869   -0.219147
     28          1           0        3.437027    0.330477    0.429234
     29          1           0        2.674987   -0.800222    1.569549
 ---------------------------------------------------------------------

 SCF Done:  E(RHF) =  -1220.39791412     A.U. after   15 cycles

 The electronic state is 1-A.
 Alpha  occ. eigenvalues -- -104.80717 -26.27583 -20.55652 -20.55511 -15.64755
 Alpha  occ. eigenvalues --  -15.63444 -15.58917 -11.42826 -11.38988 -11.35118
 Alpha  occ. eigenvalues --  -11.31510 -11.30034 -11.28865 -11.27602 -11.27140
 Alpha  occ. eigenvalues --  -11.26786 -10.54619  -8.01465  -8.01147  -8.01142
 Alpha  occ. eigenvalues --   -1.58350  -1.43728  -1.40326  -1.31562  -1.26346
 Alpha  occ. eigenvalues --   -1.24734  -1.13620  -1.09499  -1.03535  -1.01919
 Alpha  occ. eigenvalues --   -0.95776  -0.90497  -0.88644  -0.86869  -0.84434
 Alpha  occ. eigenvalues --   -0.77949  -0.77364  -0.71194  -0.70005  -0.69099
 Alpha  occ. eigenvalues --   -0.68126  -0.67399  -0.67146  -0.65156  -0.65134
 Alpha  occ. eigenvalues --   -0.63863  -0.62070  -0.61819  -0.60131  -0.59483
 Alpha  occ. eigenvalues --   -0.58154  -0.57572  -0.56398  -0.54202  -0.52924
 Alpha  occ. eigenvalues --   -0.50908  -0.50570  -0.49917  -0.48426  -0.45615
 Alpha  occ. eigenvalues --   -0.44086  -0.43703  -0.43591  -0.38875  -0.35919
 Alpha virt. eigenvalues --    0.09354   0.16617   0.17607   0.19406   0.22266
 Alpha virt. eigenvalues --    0.23393   0.24709   0.24838   0.25143   0.26545
 Alpha virt. eigenvalues --    0.27566   0.27900   0.29334   0.30259   0.31841

 Mulliken charges:
               1
     1  C   -0.557581
     2  C    0.466340
     3  C   -0.031951
     4  C    0.897953
     5  O   -0.616538
     6  N   -0.963808
     7  H    0.437142
     8  C    1.074618
     9  O   -0.614472
    10  N   -0.948093
    11  H    0.428292
    12  N   -0.685005
    13  C   -0.188492
    14  C    0.180463
    15  F   -0.459945
    16  C   -0.114178
    17  C   -0.386823
    18  Cl  -0.110414
    19  H    0.203935
    20  H    0.206354
    21  H    0.237939
    22  H    0.184678
    23  H    0.214133
    24  H    0.151046
    25  H    0.151859
    26  H    0.213210
    27  H    0.196137
    28  H    0.218566
    29  H    0.214634
 Sum of Mulliken charges =   0.00000

 Dipole moment (field-independent basis, Debye):
    X=             -0.9002    Y=              0.5392    Z=              5.1910  Tot=              5.2960
 Quadrupole moment (field-independent basis, Debye-Ang):
   XX=           -124.3021   YY=           -115.1160   ZZ=            -96.1432
   XY=              0.4650   XZ=             -2.5148   YZ=              1.9599

 ESP charges:
               1
     1  C   -0.373099
     2  C    0.481928
     3  C   -0.237000
     4  C    0.778009
     5  O   -0.588722
     6  N   -0.735161
     7  H    0.399202
     8  C    0.905080
     9  O   -0.618739
    10  N   -0.735680
    11  H    0.402495
    12  N   -0.280435
    13  C   -0.123601
    14  C    0.225177
    15  F   -0.289017
    16  C    0.155095
    17  C   -0.305523
    18  Cl  -0.183074
    19  H    0.123870
    20  H    0.132250
    21  H    0.103461
    22  H    0.116875
    23  H    0.117059
    24  H    0.036421
    25  H    0.025687
    26  H    0.061473
    27  H    0.057108
    28  H    0.179680
    29  H    0.169182
 Sum of ESP charges =   0.00000

 Normal termination of Gaussian 09 at Thu Jan 16 22:01:14 2014.
