 Gaussian 09, Revision D.01,
 Gaussian 09:  AM64L-G09RevD.01 24-Apr-2013

 -----------------------------------------
 # hf/gen pop=mk iop(6/33=2,6/41=5,6/42=2)
 -----------------------------------------

 -------
 na resp
 -------
 Symbolic Z-matrix:
 Charge =  0 Multiplicity = 1

                         Standard orientation:
 ---------------------------------------------------------------------
 Center     Atomic      Atomic             Coordinates (Angstroms)
 Number     Number       Type             X           Y           Z
 ---------------------------------------------------------------------
      1          6           0       -4.016057   -0.448692   -0.000227
      2          6           0       -3.788477    0.929195   -0.000144
      3          6           0       -2.485698    1.414846    0.000071
      4          6           0       -1.375663    0.542078    0.000118
      5          6           0       -1.624949   -0.846525   -0.000002
      6          6           0       -2.930798   -1.328431   -0.000158
      7          6           0       -0.056775    1.164452    0.000425
      8          6           0        1.218451    0.711399    0.000278
      9          6           0        2.328323    1.688201    0.000060
     10          8           0        3.510384    1.421657   -0.000752
     11         35           0        1.780250   -1.104631    0.000074
     12          1           0       -5.031830   -0.834392   -0.000304
     13          1           0       -4.624469    1.622904   -0.000236
     14          1           0       -2.313754    2.488589    0.000153
     15          1           0       -0.797793   -1.543253   -0.000017
     16          1           0       -3.101709   -2.401362   -0.000215
     17          1           0       -0.105043    2.255197    0.000805
     18          1           0        1.972639    2.741990    0.000723
 ---------------------------------------------------------------------

 SCF Done:  E(RHF) =  -2989.31284580     A.U. after   15 cycles

 The electronic state is 1-A.
 Alpha  occ. eigenvalues -- -489.84828 -64.39211 -58.55887 -58.55716 -58.55705
 Alpha  occ. eigenvalues --  -20.56806 -11.34715 -11.30920 -11.29473 -11.26913
 Alpha  occ. eigenvalues --  -11.26141 -11.25814 -11.25471 -11.25203 -11.25014
 Alpha  occ. eigenvalues --   -9.66976  -7.48557  -7.47658  -7.47631  -3.22883
 Alpha  occ. eigenvalues --   -3.22460  -3.22423  -3.21387  -3.21385  -1.39480
 Alpha  occ. eigenvalues --   -1.17838  -1.12653  -1.04769  -1.03208  -0.98471
 Alpha  occ. eigenvalues --   -0.90222  -0.84654  -0.82180  -0.75540  -0.71350
 Alpha  occ. eigenvalues --   -0.68654  -0.67131  -0.63750  -0.62045  -0.60458
 Alpha  occ. eigenvalues --   -0.59812  -0.55915  -0.53045  -0.52479  -0.52123
 Alpha  occ. eigenvalues --   -0.50745  -0.46202  -0.43312  -0.41095  -0.40065
 Alpha  occ. eigenvalues --   -0.35201  -0.32105
 Alpha virt. eigenvalues --    0.04720   0.12680   0.16064   0.16201   0.22359
 Alpha virt. eigenvalues --    0.23977   0.24640   0.27781   0.29408   0.30165
 Alpha virt. eigenvalues --    0.32690   0.33738   0.35526   0.38805   0.44483

 Mulliken charges:
               1
     1  C   -0.186569
     2  C   -0.209249
     3  C   -0.213052
     4  C    0.008623
     5  C   -0.198373
     6  C   -0.211197
     7  C   -0.161934
     8  C   -0.096391
     9  C    0.365977
    10  O   -0.509394
    11  Br  -0.099833
    12  H    0.217470
    13  H    0.215298
    14  H    0.214082
    15  H    0.256465
    16  H    0.216936
    17  H    0.224149
    18  H    0.166992
 Sum of Mulliken charges =   0.00000

 Dipole moment (field-independent basis, Debye):
    X=             -5.4982    Y=              1.1818    Z=              0.0018  Tot=              5.6238
 Quadrupole moment (field-independent basis, Debye-Ang):
   XX=            -83.3284   YY=            -65.6169   ZZ=            -80.3485
   XY=             -2.6477   XZ=              0.0071   YZ=              0.0044

 ESP charges:
               1
     1  C   -0.145904
     2  C   -0.102125
     3  C   -0.256310
     4  C    0.270563
     5  C   -0.217685
     6  C   -0.109489
     7  C   -0.206302
     8  C   -0.180692
     9  C    0.556410
    10  O   -0.502808
    11  Br  -0.021100
    12  H    0.148740
    13  H    0.140726
    14  H    0.157813
    15  H    0.155538
    16  H    0.143590
    17  H    0.168055
    18  H    0.000983
 Sum of ESP charges =   0.00000

 Normal termination of Gaussian 09 at Thu Jan 16 22:37:12 2014.
