 Gaussian 09, Revision D.01,
 Gaussian 09:  AM64L-G09RevD.01 24-Apr-2013

 ------------------------------------------------------------------
 # hf/gen pseudo=read pop=(mk, readradii) iop(6/33=2,6/41=5,6/42=2)
 ------------------------------------------------------------------

 -------
 na resp
 -------
 Symbolic Z-matrix:
 Charge =  0 Multiplicity = 1

                         Standard orientation:
 ---------------------------------------------------------------------
 Center     Atomic      Atomic             Coordinates (Angstroms)
 Number     Number       Type             X           Y           Z
 ---------------------------------------------------------------------
      1          6           0        0.336428   -1.535404   -0.879970
      2          6           0        1.686060   -1.178298   -0.910796
      3          6           0        2.176995   -0.285667    0.039992
      4          6           0        1.341857    0.248799    1.022106
      5          6           0       -0.004850   -0.113353    1.053580
      6          6           0       -0.498071   -1.000205    0.097131
      7          8           0       -1.805210   -1.476703    0.140220
      8          6           0       -2.866983   -0.634342    0.060888
      9          6           0       -4.131039   -1.216407    0.213200
     10          6           0       -5.176207   -0.312965    0.091397
     11          7           0       -5.053916    0.979535   -0.137317
     12          6           0       -3.783557    1.410696   -0.253022
     13          7           0       -2.670121    0.655959   -0.169617
     14          7           0       -3.603785    2.745632   -0.449157
     15          9           0       -6.427328   -0.767263    0.210097
     16         53           0        4.248007    0.269307   -0.003113
     17          1           0       -0.071459   -2.231143   -1.606155
     18          1           0        2.336930   -1.595967   -1.670666
     19          1           0        1.729670    0.938911    1.763190
     20          1           0       -0.664265    0.292830    1.812005
     21          1           0       -4.275634   -2.271210    0.398908
     22          1           0       -2.690814    3.056550   -0.744909
     23          1           0       -4.410190    3.290756   -0.714433
 ---------------------------------------------------------------------

 SCF Done:  E(RHF) =  -731.573725199     A.U. after   15 cycles

 The electronic state is 1-A.
 Alpha  occ. eigenvalues --  -26.32599 -20.63163 -15.59205 -15.57480 -15.57315
 Alpha  occ. eigenvalues --  -11.39712 -11.38370 -11.38194 -11.32226 -11.30114
 Alpha  occ. eigenvalues --  -11.26344 -11.26340 -11.25600 -11.25513 -11.24008
 Alpha  occ. eigenvalues --   -1.64654  -1.46391  -1.34549  -1.22066  -1.21163
 Alpha  occ. eigenvalues --   -1.17289  -1.07446  -1.04085  -1.03275  -0.92212
 Alpha  occ. eigenvalues --   -0.90233  -0.87655  -0.86012  -0.82181  -0.78788
 Alpha  occ. eigenvalues --   -0.77950  -0.71934  -0.71054  -0.70211  -0.68160
 Alpha  occ. eigenvalues --   -0.67350  -0.66781  -0.65025  -0.63802  -0.62821
 Alpha  occ. eigenvalues --   -0.61627  -0.60777  -0.58452  -0.57423  -0.52459
 Alpha  occ. eigenvalues --   -0.51996  -0.50235  -0.46401  -0.46227  -0.43938
 Alpha  occ. eigenvalues --   -0.42601  -0.39514  -0.37203  -0.35636  -0.34381
 Alpha  occ. eigenvalues --   -0.32327
 Alpha virt. eigenvalues --    0.10539   0.11500   0.12013   0.13741   0.14446
 Alpha virt. eigenvalues --    0.22812   0.24506   0.27517   0.27799   0.27959
 Alpha virt. eigenvalues --    0.30288   0.32688   0.33556   0.34063   0.35379

 Mulliken charges:
               1
     1  C   -0.235003
     2  C   -0.138729
     3  C   -0.402215
     4  C   -0.143666
     5  C   -0.206838
     6  C    0.424695
     7  O   -0.746472
     8  C    0.760230
     9  C   -0.469277
    10  C    0.818740
    11  N   -0.653433
    12  C    0.830733
    13  N   -0.681390
    14  N   -0.937145
    15  F   -0.418410
    16  I    0.191226
    17  H    0.234412
    18  H    0.232653
    19  H    0.232258
    20  H    0.236160
    21  H    0.251958
    22  H    0.408887
    23  H    0.410625
 Sum of Mulliken charges =   0.00000

 Dipole moment (field-independent basis, Debye):
    X=              0.5124    Y=              0.9819    Z=             -0.8756  Tot=              1.4118
 Quadrupole moment (field-independent basis, Debye-Ang):
   XX=           -125.9373   YY=            -95.8515   ZZ=           -101.3127
   XY=             -3.3165   XZ=              2.0928   YZ=              0.6637

 ESP charges:
               1
     1  C   -0.455973
     2  C    0.223045
     3  C   -0.476178
     4  C    0.245274
     5  C   -0.484618
     6  C    0.607884
     7  O   -0.495758
     8  C    0.979546
     9  C   -0.972205
    10  C    0.926515
    11  N   -0.852137
    12  C    1.080662
    13  N   -0.883654
    14  N   -1.010808
    15  F   -0.238573
    16  I   -0.006506
    17  H    0.205539
    18  H    0.104325
    19  H    0.096515
    20  H    0.229466
    21  H    0.308396
    22  H    0.435551
    23  H    0.433693
 Sum of ESP charges =   0.00000

 Normal termination of Gaussian 09 at Fri Jan 17 11:57:13 2014.
