 Gaussian 09, Revision D.01,
 Gaussian 09:  AM64L-G09RevD.01 24-Apr-2013

 -----------------------------------------
 # hf/gen pop=mk iop(6/33=2,6/41=5,6/42=2)
 -----------------------------------------

 -------
 na resp
 -------
 Symbolic Z-matrix:
 Charge =  0 Multiplicity = 1

                         Standard orientation:
 ---------------------------------------------------------------------
 Center     Atomic      Atomic             Coordinates (Angstroms)
 Number     Number       Type             X           Y           Z
 ---------------------------------------------------------------------
      1          6           0       -3.692821   -0.894041   -1.068744
      2          6           0       -2.612256   -1.713574   -1.391664
      3          6           0       -1.425053   -1.606336   -0.661233
      4          6           0       -1.331358   -0.683052    0.372020
      5          6           0       -2.405703    0.164125    0.706301
      6          6           0       -3.590262    0.033247   -0.031560
      7          7           0       -2.279849    1.052238    1.774962
      8          8           0       -0.200227   -0.557453    1.186444
      9          6           0        1.043489   -0.751373    0.631260
     10          6           0        1.726420   -1.943362    0.881269
     11          6           0        3.017059   -2.132000    0.387260
     12          6           0        3.633069   -1.127150   -0.360055
     13          6           0        2.963739    0.072917   -0.604632
     14          6           0        1.676493    0.257950   -0.105238
     15         35           0        0.778138    1.913746   -0.392641
     16          1           0       -4.622063   -0.969200   -1.626822
     17          1           0       -2.684916   -2.434243   -2.200584
     18          1           0       -0.572676   -2.236954   -0.893696
     19          1           0       -4.433309    0.675834    0.212872
     20          1           0       -1.320232    1.330675    1.946291
     21          1           0       -2.898429    1.852339    1.719818
     22          1           0        1.227667   -2.706182    1.470925
     23          1           0        3.538768   -3.063376    0.586943
     24          1           0        4.637493   -1.268004   -0.748266
     25          1           0        3.436716    0.867851   -1.171235
 ---------------------------------------------------------------------

 SCF Done:  E(RHF) =  -3159.12404575     A.U. after   15 cycles

 The electronic state is 1-A.
 Alpha  occ. eigenvalues -- -489.84807 -64.39158 -58.55849 -58.55672 -58.55661
 Alpha  occ. eigenvalues --  -20.60123 -15.55393 -11.31989 -11.30453 -11.29124
 Alpha  occ. eigenvalues --  -11.27390 -11.26005 -11.25536 -11.25141 -11.25067
 Alpha  occ. eigenvalues --  -11.23332 -11.22963 -11.22469 -11.22298  -9.66901
 Alpha  occ. eigenvalues --   -7.48475  -7.47583  -7.47573  -3.22799  -3.22371
 Alpha  occ. eigenvalues --   -3.22359  -3.21326  -3.21325  -1.42470  -1.21453
 Alpha  occ. eigenvalues --   -1.17214  -1.12251  -1.06842  -1.03701  -1.00217
 Alpha  occ. eigenvalues --   -0.98263  -0.96300  -0.86041  -0.84254  -0.81784
 Alpha  occ. eigenvalues --   -0.79935  -0.73022  -0.69664  -0.68997  -0.67830
 Alpha  occ. eigenvalues --   -0.66609  -0.63441  -0.61680  -0.61138  -0.59488
 Alpha  occ. eigenvalues --   -0.58730  -0.58197  -0.55492  -0.53622  -0.52651
 Alpha  occ. eigenvalues --   -0.50901  -0.50505  -0.49671  -0.47956  -0.44308
 Alpha  occ. eigenvalues --   -0.43782  -0.41554  -0.34770  -0.33543  -0.32325
 Alpha  occ. eigenvalues --   -0.28405
 Alpha virt. eigenvalues --    0.11732   0.12730   0.14702   0.16392   0.16869
 Alpha virt. eigenvalues --    0.24294   0.24393   0.24928   0.28495   0.29166
 Alpha virt. eigenvalues --    0.31424   0.31721   0.31881   0.32852   0.33207

 Mulliken charges:
               1
     1  C   -0.191923
     2  C   -0.226425
     3  C   -0.234143
     4  C    0.377796
     5  C    0.284083
     6  C   -0.249030
     7  N   -0.928192
     8  O   -0.774410
     9  C    0.425618
    10  C   -0.241201
    11  C   -0.195676
    12  C   -0.208175
    13  C   -0.182198
    14  C   -0.026562
    15  Br  -0.124279
    16  H    0.202613
    17  H    0.201648
    18  H    0.222459
    19  H    0.199765
    20  H    0.393924
    21  H    0.361986
    22  H    0.237338
    23  H    0.219863
    24  H    0.217684
    25  H    0.237437
 Sum of Mulliken charges =   0.00000

 Dipole moment (field-independent basis, Debye):
    X=              1.5866    Y=             -0.4771    Z=             -1.1632  Tot=              2.0244
 Quadrupole moment (field-independent basis, Debye-Ang):
   XX=            -86.5099   YY=            -91.4934   ZZ=           -104.0097
   XY=             -9.3445   XZ=              1.2518   YZ=              3.0910

 ESP charges:
               1
     1  C   -0.121052
     2  C   -0.250882
     3  C   -0.211198
     4  C    0.184488
     5  C    0.475054
     6  C   -0.389759
     7  N   -0.975066
     8  O   -0.429362
     9  C    0.601432
    10  C   -0.372232
    11  C   -0.036290
    12  C   -0.294170
    13  C    0.077302
    14  C   -0.318625
    15  Br  -0.063182
    16  H    0.158412
    17  H    0.171419
    18  H    0.165495
    19  H    0.197228
    20  H    0.398734
    21  H    0.394912
    22  H    0.193147
    23  H    0.145685
    24  H    0.173809
    25  H    0.124699
 Sum of ESP charges =   0.00000

 Normal termination of Gaussian 09 at Thu Jan 16 22:40:34 2014.
