 Gaussian 09, Revision D.01,
 Gaussian 09:  AM64L-G09RevD.01 24-Apr-2013

 -----------------------------------------
 # hf/gen pop=mk iop(6/33=2,6/41=5,6/42=2)
 -----------------------------------------

 -------
 na resp
 -------
 Symbolic Z-matrix:
 Charge =  0 Multiplicity = 1

                         Standard orientation:
 ---------------------------------------------------------------------
 Center     Atomic      Atomic             Coordinates (Angstroms)
 Number     Number       Type             X           Y           Z
 ---------------------------------------------------------------------
      1          6           0        2.409831    2.240603    0.000168
      2          6           0        2.695998    0.885873    0.000021
      3          6           0        1.636961   -0.031487   -0.000287
      4          6           0        0.307791    0.466670   -0.000336
      5          6           0       -0.776625   -0.491423   -0.000265
      6          6           0       -0.502868   -1.818666    0.000074
      7          7           0        0.794133   -2.278738    0.000006
      8          1           0        0.975193   -3.275373    0.000436
      9          6           0        1.934667   -1.474677   -0.000813
     10          8           0        3.055367   -1.969671    0.000561
     11         35           0       -2.578724    0.097449    0.000071
     12          7           0        0.035236    1.787572   -0.000096
     13          6           0        1.060890    2.632112    0.000126
     14          1           0        3.197474    2.987310    0.000323
     15          1           0        3.711792    0.503205   -0.000011
     16          1           0       -1.278721   -2.574170    0.000505
     17          1           0        0.801225    3.689829    0.000280
 ---------------------------------------------------------------------

 SCF Done:  E(RHF) =  -3059.22380620     A.U. after   16 cycles

 The electronic state is 1-A.
 Alpha  occ. eigenvalues -- -489.84626 -64.38972 -58.55670 -58.55479 -58.55469
 Alpha  occ. eigenvalues --  -20.53982 -15.63690 -15.58214 -11.38009 -11.32682
 Alpha  occ. eigenvalues --  -11.31827 -11.30046 -11.29980 -11.27788 -11.26479
 Alpha  occ. eigenvalues --  -11.25360  -9.66710  -7.48310  -7.47368  -7.47366
 Alpha  occ. eigenvalues --   -3.22647  -3.22194  -3.22188  -3.21092  -3.21091
 Alpha  occ. eigenvalues --   -1.39712  -1.29331  -1.27348  -1.11782  -1.11241
 Alpha  occ. eigenvalues --   -1.04995  -0.97810  -0.91912  -0.90393  -0.82685
 Alpha  occ. eigenvalues --   -0.77430  -0.75171  -0.73217  -0.67550  -0.65372
 Alpha  occ. eigenvalues --   -0.63346  -0.62653  -0.61293  -0.59288  -0.55297
 Alpha  occ. eigenvalues --   -0.55134  -0.52986  -0.51158  -0.45156  -0.44621
 Alpha  occ. eigenvalues --   -0.42982  -0.40815  -0.39721  -0.37977  -0.31078
 Alpha virt. eigenvalues --    0.07926   0.08051   0.16074   0.17840   0.22236
 Alpha virt. eigenvalues --    0.24293   0.24662   0.28070   0.29955   0.31482
 Alpha virt. eigenvalues --    0.37427   0.39016   0.39828   0.41779   0.44040

 Mulliken charges:
               1
     1  C   -0.286574
     2  C   -0.097578
     3  C   -0.227543
     4  C    0.365648
     5  C   -0.105618
     6  C    0.171214
     7  N   -0.901278
     8  H    0.421563
     9  C    0.878917
    10  O   -0.631990
    11  Br  -0.094205
    12  N   -0.575420
    13  C    0.096247
    14  H    0.226027
    15  H    0.270882
    16  H    0.265974
    17  H    0.223732
 Sum of Mulliken charges =   0.00000

 Dipole moment (field-independent basis, Debye):
    X=              0.0427    Y=             -0.3712    Z=             -0.0018  Tot=              0.3737
 Quadrupole moment (field-independent basis, Debye-Ang):
   XX=            -88.6066   YY=            -67.0795   ZZ=            -83.2292
   XY=             15.0984   XZ=             -0.0076   YZ=              0.0034

 ESP charges:
               1
     1  C   -0.445617
     2  C    0.135786
     3  C   -0.564918
     4  C    1.019535
     5  C   -0.709130
     6  C    0.420205
     7  N   -0.705715
     8  H    0.391589
     9  C    0.871114
    10  O   -0.638365
    11  Br   0.003792
    12  N   -0.661880
    13  C    0.331218
    14  H    0.193044
    15  H    0.152987
    16  H    0.108974
    17  H    0.097382
 Sum of ESP charges =   0.00000

 Normal termination of Gaussian 09 at Thu Jan 16 22:37:16 2014.
