 Gaussian 09, Revision D.01,
 Gaussian 09:  AM64L-G09RevD.01 24-Apr-2013

 -----------------------------------------
 # hf/gen pop=mk iop(6/33=2,6/41=5,6/42=2)
 -----------------------------------------

 -------
 na resp
 -------
 Symbolic Z-matrix:
 Charge =  0 Multiplicity = 1

                         Standard orientation:
 ---------------------------------------------------------------------
 Center     Atomic      Atomic             Coordinates (Angstroms)
 Number     Number       Type             X           Y           Z
 ---------------------------------------------------------------------
      1          6           0       -5.171154    0.643962    0.114230
      2          6           0       -3.944689    1.054940   -0.705230
      3          7           0       -2.971834   -0.018072   -0.898942
      4          6           0       -2.075927   -0.319914    0.108537
      5          8           0       -1.938770    0.372906    1.113994
      6          7           0       -1.342831   -1.478355   -0.119769
      7          6           0       -0.226180   -1.809434    0.764757
      8          6           0        1.110454   -1.229527    0.332905
      9          6           0        2.128389   -2.058804   -0.148702
     10          6           0        3.350858   -1.520816   -0.557241
     11          6           0        3.573313   -0.146681   -0.492140
     12          6           0        2.552356    0.674085   -0.009261
     13          6           0        1.329557    0.154848    0.404045
     14         17           0        2.825557    2.412068    0.084028
     15          1           0       -5.710818   -0.184083   -0.361944
     16          1           0       -4.867711    0.329852    1.117494
     17          1           0       -5.866913    1.485572    0.212395
     18          1           0       -4.243635    1.411955   -1.697529
     19          1           0       -3.415643    1.869109   -0.205352
     20          1           0       -3.272063   -0.789788   -1.481795
     21          1           0       -1.220615   -1.743004   -1.090017
     22          1           0       -0.503823   -1.433303    1.751958
     23          1           0       -0.151386   -2.900838    0.827519
     24          1           0        1.966764   -3.133156   -0.200315
     25          1           0        4.136299   -2.173551   -0.928396
     26          1           0        4.517872    0.284932   -0.805399
     27          1           0        0.548147    0.806929    0.780523
 ---------------------------------------------------------------------

 SCF Done:  E(RHF) =  -1029.52062566     A.U. after   15 cycles

 The electronic state is 1-A.
 Alpha  occ. eigenvalues -- -104.81348 -20.51996 -15.58589 -15.58273 -11.38142
 Alpha  occ. eigenvalues --  -11.30139 -11.27133 -11.26109 -11.25158 -11.24845
 Alpha  occ. eigenvalues --  -11.24730 -11.24394 -11.24174 -11.21521 -10.55192
 Alpha  occ. eigenvalues --   -8.02048  -8.01719  -8.01716  -1.38824  -1.24357
 Alpha  occ. eigenvalues --   -1.21118  -1.17987  -1.11279  -1.04435  -1.01163
 Alpha  occ. eigenvalues --   -0.99427  -0.93674  -0.85914  -0.82962  -0.80454
 Alpha  occ. eigenvalues --   -0.78620  -0.75411  -0.70142  -0.66626  -0.65280
 Alpha  occ. eigenvalues --   -0.63795  -0.62246  -0.61257  -0.60142  -0.58882
 Alpha  occ. eigenvalues --   -0.58073  -0.57605  -0.55207  -0.54156  -0.52991
 Alpha  occ. eigenvalues --   -0.51882  -0.51148  -0.49761  -0.49553  -0.45964
 Alpha  occ. eigenvalues --   -0.44692  -0.43967  -0.40183  -0.39147  -0.33867
 Alpha  occ. eigenvalues --   -0.33138
 Alpha virt. eigenvalues --    0.12499   0.13113   0.19927   0.20936   0.22194
 Alpha virt. eigenvalues --    0.24944   0.25559   0.27790   0.28852   0.29972
 Alpha virt. eigenvalues --    0.30138   0.30993   0.31998   0.32078   0.32990

 Mulliken charges:
               1
     1  C   -0.499670
     2  C   -0.117716
     3  N   -0.835982
     4  C    1.050427
     5  O   -0.674217
     6  N   -0.831392
     7  C   -0.168294
     8  C    0.019903
     9  C   -0.231645
    10  C   -0.193297
    11  C   -0.187387
    12  C   -0.133200
    13  C   -0.211853
    14  Cl  -0.006908
    15  H    0.150909
    16  H    0.195561
    17  H    0.166924
    18  H    0.173190
    19  H    0.217387
    20  H    0.376007
    21  H    0.378301
    22  H    0.240853
    23  H    0.190859
    24  H    0.205191
    25  H    0.213176
    26  H    0.231201
    27  H    0.281672
 Sum of Mulliken charges =   0.00000

 Dipole moment (field-independent basis, Debye):
    X=             -1.2397    Y=             -3.8675    Z=             -3.1345  Tot=              5.1303
 Quadrupole moment (field-independent basis, Debye-Ang):
   XX=            -80.2392   YY=            -86.8922   ZZ=            -92.2037
   XY=             -4.5212   XZ=              4.9064   YZ=              1.4440

 ESP charges:
               1
     1  C   -0.332847
     2  C    0.377847
     3  N   -0.935023
     4  C    1.034694
     5  O   -0.591207
     6  N   -0.852526
     7  C    0.235323
     8  C   -0.094291
     9  C   -0.136879
    10  C   -0.219548
    11  C   -0.020567
    12  C   -0.074808
    13  C    0.042756
    14  Cl  -0.115751
    15  H    0.083684
    16  H    0.095904
    17  H    0.068932
    18  H    0.005637
    19  H    0.010859
    20  H    0.408705
    21  H    0.394912
    22  H    0.039855
    23  H    0.043494
    24  H    0.140867
    25  H    0.161225
    26  H    0.125219
    27  H    0.103537
 Sum of ESP charges =   0.00000

 Normal termination of Gaussian 09 at Thu Jan 16 21:49:16 2014.
