 Gaussian 09, Revision D.01,
 Gaussian 09:  AM64L-G09RevD.01 24-Apr-2013

 ------------------------------------------------------------------
 # hf/gen pseudo=read pop=(mk, readradii) iop(6/33=2,6/41=5,6/42=2)
 ------------------------------------------------------------------

 -------
 na resp
 -------
 Symbolic Z-matrix:
 Charge =  0 Multiplicity = 1

                         Standard orientation:
 ---------------------------------------------------------------------
 Center     Atomic      Atomic             Coordinates (Angstroms)
 Number     Number       Type             X           Y           Z
 ---------------------------------------------------------------------
      1          6           0        2.737998   -2.829303    1.128978
      2          6           0        2.099055   -2.536277   -0.247476
      3          6           0        1.284722   -3.746856   -0.727858
      4          6           0        1.311852   -1.226968   -0.216741
      5          6           0       -0.085422   -1.208861   -0.117724
      6          6           0       -0.766118    0.001218   -0.057887
      7          6           0       -0.086294    1.214940   -0.101721
      8          6           0        1.308007    1.239203   -0.203345
      9          6           0        1.989011    0.007673   -0.251324
     10          8           0        3.359035    0.081402   -0.331947
     11          6           0        2.102835    2.540258   -0.235187
     12          6           0        1.310381    3.738048   -0.779585
     13          6           0        2.682898    2.857824    1.159739
     14         53           0       -2.911119   -0.003520    0.101438
     15          1           0        1.957132   -2.994182    1.879813
     16          1           0        3.364614   -3.728084    1.085349
     17          1           0        3.357992   -1.996355    1.478324
     18          1           0        2.915978   -2.420047   -0.981383
     19          1           0        0.800396   -3.552137   -1.690486
     20          1           0        1.942031   -4.615244   -0.845638
     21          1           0        0.509231   -4.023244   -0.004497
     22          1           0       -0.635023   -2.141606   -0.092085
     23          1           0       -0.637121    2.146900   -0.064968
     24          1           0        3.723973   -0.806970   -0.455936
     25          1           0        2.952995    2.371573   -0.907155
     26          1           0        1.976268    4.600160   -0.898770
     27          1           0        0.862616    3.519014   -1.755423
     28          1           0        0.507244    4.044604   -0.098475
     29          1           0        3.303975    2.034447    1.524788
     30          1           0        3.302889    3.761813    1.121504
     31          1           0        1.878294    3.029298    1.885197
 ---------------------------------------------------------------------

 SCF Done:  E(RHF) =  -550.326059582     A.U. after   15 cycles

 The electronic state is 1-A.
 Alpha  occ. eigenvalues --  -20.59683 -11.30643 -11.28458 -11.25760 -11.24981
 Alpha  occ. eigenvalues --  -11.24833 -11.24570 -11.24270 -11.23244 -11.22848
 Alpha  occ. eigenvalues --  -11.22800 -11.21323 -11.20835  -1.40681  -1.16482
 Alpha  occ. eigenvalues --   -1.10608  -1.07190  -1.00673  -0.99699  -0.94535
 Alpha  occ. eigenvalues --   -0.92793  -0.87935  -0.87334  -0.83045  -0.78170
 Alpha  occ. eigenvalues --   -0.75452  -0.73972  -0.68580  -0.63718  -0.62613
 Alpha  occ. eigenvalues --   -0.61672  -0.60576  -0.59909  -0.59832  -0.57244
 Alpha  occ. eigenvalues --   -0.56337  -0.54979  -0.54778  -0.53892  -0.52841
 Alpha  occ. eigenvalues --   -0.51673  -0.50536  -0.49289  -0.49048  -0.47464
 Alpha  occ. eigenvalues --   -0.47337  -0.46245  -0.43757  -0.37540  -0.36211
 Alpha  occ. eigenvalues --   -0.33349  -0.30079
 Alpha virt. eigenvalues --    0.11628   0.13182   0.14158   0.20072   0.23478
 Alpha virt. eigenvalues --    0.23892   0.27153   0.28289   0.28690   0.28932
 Alpha virt. eigenvalues --    0.30092   0.30320   0.32019   0.32429   0.33079

 Mulliken charges:
               1
     1  C   -0.482414
     2  C   -0.228579
     3  C   -0.495489
     4  C    0.005151
     5  C   -0.158420
     6  C   -0.409996
     7  C   -0.155896
     8  C   -0.012749
     9  C    0.389891
    10  O   -0.824721
    11  C   -0.170731
    12  C   -0.499729
    13  C   -0.480893
    14  I    0.168089
    15  H    0.179360
    16  H    0.168604
    17  H    0.173883
    18  H    0.155934
    19  H    0.183384
    20  H    0.175459
    21  H    0.169479
    22  H    0.226689
    23  H    0.227829
    24  H    0.484756
    25  H    0.199818
    26  H    0.171418
    27  H    0.174489
    28  H    0.159291
    29  H    0.185926
    30  H    0.160248
    31  H    0.159918
 Sum of Mulliken charges =   0.00000

 Dipole moment (field-independent basis, Debye):
    X=              2.4006    Y=             -1.7010    Z=             -0.3111  Tot=              2.9586
 Quadrupole moment (field-independent basis, Debye-Ang):
   XX=           -100.1581   YY=            -92.4469   ZZ=           -104.5074
   XY=             -5.8430   XZ=             -1.4848   YZ=              0.4842

 ESP charges:
               1
     1  C   -0.424531
     2  C    0.489590
     3  C   -0.511196
     4  C   -0.505435
     5  C    0.367127
     6  C   -0.634565
     7  C    0.327230
     8  C   -0.409702
     9  C    0.522166
    10  O   -0.661934
    11  C    0.495021
    12  C   -0.545650
    13  C   -0.388956
    14  I   -0.009890
    15  H    0.118071
    16  H    0.089578
    17  H    0.103231
    18  H   -0.037693
    19  H    0.121447
    20  H    0.125967
    21  H    0.134487
    22  H    0.062163
    23  H    0.072132
    24  H    0.443936
    25  H   -0.001337
    26  H    0.129073
    27  H    0.118285
    28  H    0.135312
    29  H    0.107314
    30  H    0.079568
    31  H    0.089189
 Sum of ESP charges =   0.00000

 Normal termination of Gaussian 09 at Fri Jan 17 11:57:37 2014.
