 Gaussian 09, Revision D.01,
 Gaussian 09:  AM64L-G09RevD.01 24-Apr-2013

 -----------------------------------------
 # hf/gen pop=mk iop(6/33=2,6/41=5,6/42=2)
 -----------------------------------------

 -------
 na resp
 -------
 Symbolic Z-matrix:
 Charge =  0 Multiplicity = 1

                         Standard orientation:
 ---------------------------------------------------------------------
 Center     Atomic      Atomic             Coordinates (Angstroms)
 Number     Number       Type             X           Y           Z
 ---------------------------------------------------------------------
      1          6           0        6.031063   -0.093868    0.000804
      2          6           0        4.764160   -0.926999    0.000034
      3          8           0        3.643033   -0.008504   -0.000412
      4          6           0        2.421898   -0.565381    0.000328
      5          8           0        2.210344   -1.760899    0.001249
      6          6           0        1.343182    0.480823   -0.000136
      7          6           0        0.058424    0.032586    0.000622
      8          6           0       -1.215834    0.735637    0.000534
      9          6           0       -1.323134    2.145488    0.001063
     10          6           0       -2.554828    2.786790    0.001096
     11          6           0       -3.732736    2.037656    0.000619
     12          6           0       -3.670178    0.645130    0.000132
     13          6           0       -2.432804    0.008046    0.000109
     14         35           0       -2.464276   -1.907055   -0.000537
     15          6           0        1.753892    1.848761   -0.001477
     16          7           0        2.089136    2.964085   -0.002538
     17          1           0        6.079507    0.545063   -0.886358
     18          1           0        6.078707    0.544622    0.888330
     19          1           0        6.905555   -0.753514    0.001035
     20          1           0        4.687212   -1.567919    0.883895
     21          1           0        4.688139   -1.567594   -0.884164
     22          1           0       -0.005937   -1.051763    0.001328
     23          1           0       -0.421410    2.743889    0.001511
     24          1           0       -2.593906    3.871769    0.001525
     25          1           0       -4.700896    2.530224    0.000636
     26          1           0       -4.576916    0.050776   -0.000227
 ---------------------------------------------------------------------

 SCF Done:  E(RHF) =  -3233.99770122     A.U. after   17 cycles

 The electronic state is 1-A.
 Alpha  occ. eigenvalues -- -489.86162 -64.40535 -58.57218 -58.57042 -58.57028
 Alpha  occ. eigenvalues --  -20.61547 -20.55954 -15.58678 -11.40458 -11.33114
 Alpha  occ. eigenvalues --  -11.30463 -11.29514 -11.29484 -11.28973 -11.28830
 Alpha  occ. eigenvalues --  -11.27455 -11.27120 -11.26879 -11.26235 -11.22567
 Alpha  occ. eigenvalues --   -9.68295  -7.49863  -7.48971  -7.48967  -3.24188
 Alpha  occ. eigenvalues --   -3.23757  -3.23755  -3.22717  -3.22714  -1.46799
 Alpha  occ. eigenvalues --   -1.36626  -1.22376  -1.19916  -1.12842  -1.08314
 Alpha  occ. eigenvalues --   -1.06049  -1.03570  -0.98555  -0.93049  -0.87816
 Alpha  occ. eigenvalues --   -0.84186  -0.83118  -0.80099  -0.75527  -0.71312
 Alpha  occ. eigenvalues --   -0.69258  -0.68709  -0.67024  -0.66321  -0.63214
 Alpha  occ. eigenvalues --   -0.60699  -0.59788  -0.58490  -0.57627  -0.55883
 Alpha  occ. eigenvalues --   -0.55461  -0.55242  -0.54093  -0.52459  -0.51748
 Alpha  occ. eigenvalues --   -0.50724  -0.50308  -0.48250  -0.46474  -0.45161
 Alpha  occ. eigenvalues --   -0.44332  -0.42892  -0.42301  -0.35421  -0.33591
 Alpha virt. eigenvalues --    0.02739   0.11024   0.14894   0.15601   0.19381
 Alpha virt. eigenvalues --    0.19456   0.23983   0.24049   0.27816   0.28539
 Alpha virt. eigenvalues --    0.29746   0.29961   0.30558   0.31470   0.32050

 Mulliken charges:
               1
     1  C   -0.513745
     2  C    0.002823
     3  O   -0.686915
     4  C    0.926845
     5  O   -0.606330
     6  C   -0.188182
     7  C   -0.110275
     8  C   -0.009599
     9  C   -0.201970
    10  C   -0.214172
    11  C   -0.177437
    12  C   -0.192194
    13  C    0.012820
    14  Br  -0.112780
    15  C    0.267599
    16  N   -0.418763
    17  H    0.188588
    18  H    0.188562
    19  H    0.172784
    20  H    0.189337
    21  H    0.189267
    22  H    0.309597
    23  H    0.279327
    24  H    0.231241
    25  H    0.230585
    26  H    0.242985
 Sum of Mulliken charges =   0.00000

 Dipole moment (field-independent basis, Debye):
    X=             -2.3012    Y=              0.0524    Z=              0.0038  Tot=              2.3018
 Quadrupole moment (field-independent basis, Debye-Ang):
   XX=            -82.4267   YY=           -114.3277   ZZ=           -107.3898
   XY=            -16.0516   XZ=              0.0056   YZ=              0.0209

 ESP charges:
               1
     1  C   -0.358024
     2  C    0.324256
     3  O   -0.441454
     4  C    0.842219
     5  O   -0.612733
     6  C   -0.243980
     7  C   -0.224580
     8  C    0.484627
     9  C   -0.349474
    10  C   -0.060067
    11  C   -0.184983
    12  C    0.054238
    13  C   -0.313131
    14  Br  -0.016641
    15  C    0.367847
    16  N   -0.469247
    17  H    0.111841
    18  H    0.111784
    19  H    0.088067
    20  H    0.020908
    21  H    0.020866
    22  H    0.194255
    23  H    0.234002
    24  H    0.144119
    25  H    0.162042
    26  H    0.113241
 Sum of ESP charges =   0.00000

 Normal termination of Gaussian 09 at Thu Jan 16 22:40:43 2014.
