 Gaussian 09, Revision D.01,
 Gaussian 09:  AM64L-G09RevD.01 24-Apr-2013

 -----------------------------------------
 # hf/gen pop=mk iop(6/33=2,6/41=5,6/42=2)
 -----------------------------------------

 -------
 na resp
 -------
 Symbolic Z-matrix:
 Charge =  0 Multiplicity = 1

                         Standard orientation:
 ---------------------------------------------------------------------
 Center     Atomic      Atomic             Coordinates (Angstroms)
 Number     Number       Type             X           Y           Z
 ---------------------------------------------------------------------
      1          7           0        0.611590   -1.857155    0.000184
      2          6           0        0.958512   -0.571778    0.000129
      3          7           0       -0.140343    0.270335    0.000181
      4          6           0       -1.236952   -0.558772    0.000045
      5          6           0       -0.749510   -1.853697    0.000131
      6          6           0        0.010531    1.649957    0.000190
      7          6           0        1.289864    2.122308    0.000132
      8          7           0        2.417961    1.351130    0.000051
      9          6           0        2.260390    0.036025    0.000050
     10          7           0        3.332768   -0.790355    0.000323
     11          6           0        4.699647   -0.308198   -0.000486
     12         35           0       -2.985611    0.107035   -0.000129
     13          1           0        4.903788    0.303985    0.885404
     14          1           0        5.370665   -1.169916   -0.002183
     15          1           0        4.901851    0.306073   -0.885351
     16          1           0        3.136805   -1.780828   -0.000114
     17          1           0       -1.330818   -2.765408    0.000113
     18          1           0       -0.887960    2.250797    0.000210
     19          1           0        1.453317    3.196318    0.000103
 ---------------------------------------------------------------------

 SCF Done:  E(RHF) =  -3056.51366555     A.U. after   14 cycles

 The electronic state is 1-A.
 Alpha  occ. eigenvalues -- -489.86922 -64.41288 -58.57981 -58.57792 -58.57781
 Alpha  occ. eigenvalues --  -15.67202 -15.58686 -15.57271 -15.55982 -11.34127
 Alpha  occ. eigenvalues --  -11.32626 -11.31643 -11.27907 -11.27767 -11.27520
 Alpha  occ. eigenvalues --  -11.26041  -9.69054  -7.50656  -7.49729  -7.49693
 Alpha  occ. eigenvalues --   -3.24997  -3.24548  -3.24518  -3.23437  -3.23437
 Alpha  occ. eigenvalues --   -1.38641  -1.29016  -1.23408  -1.18992  -1.08615
 Alpha  occ. eigenvalues --   -1.03385  -0.99831  -0.94287  -0.88014  -0.86190
 Alpha  occ. eigenvalues --   -0.80738  -0.75503  -0.71500  -0.67218  -0.65663
 Alpha  occ. eigenvalues --   -0.65586  -0.62622  -0.61199  -0.60063  -0.58336
 Alpha  occ. eigenvalues --   -0.56238  -0.54674  -0.52195  -0.48031  -0.46701
 Alpha  occ. eigenvalues --   -0.45539  -0.43402  -0.42673  -0.40092  -0.32281
 Alpha  occ. eigenvalues --   -0.29128
 Alpha virt. eigenvalues --    0.10758   0.14110   0.16776   0.21749   0.23915
 Alpha virt. eigenvalues --    0.26169   0.27262   0.28941   0.30857   0.31901
 Alpha virt. eigenvalues --    0.32276   0.33976   0.35997   0.37145   0.38070

 Mulliken charges:
               1
     1  N   -0.588240
     2  C    0.550992
     3  N   -0.704297
     4  C    0.252317
     5  C   -0.013631
     6  C    0.003983
     7  C    0.019903
     8  N   -0.647955
     9  C    0.654065
    10  N   -0.846633
    11  C   -0.259811
    12  Br  -0.103619
    13  H    0.190302
    14  H    0.174581
    15  H    0.190377
    16  H    0.424780
    17  H    0.234514
    18  H    0.251648
    19  H    0.216725
 Sum of Mulliken charges =   0.00000

 Dipole moment (field-independent basis, Debye):
    X=              0.3105    Y=              0.1879    Z=             -0.0021  Tot=              0.3629
 Quadrupole moment (field-independent basis, Debye-Ang):
   XX=            -73.5508   YY=            -78.6588   ZZ=            -85.3031
   XY=             -4.9289   XZ=             -0.0081   YZ=              0.0024

 ESP charges:
               1
     1  N   -0.649255
     2  C    0.016297
     3  N    0.766691
     4  C   -0.628918
     5  C    0.410258
     6  C   -0.743234
     7  C    0.284162
     8  N   -0.633761
     9  C    0.603479
    10  N   -0.419238
    11  C   -0.297535
    12  Br   0.056007
    13  H    0.127806
    14  H    0.146562
    15  H    0.127945
    16  H    0.332308
    17  H    0.095866
    18  H    0.286321
    19  H    0.118239
 Sum of ESP charges =   0.00000

 Normal termination of Gaussian 09 at Thu Jan 16 22:37:17 2014.
