 Gaussian 09, Revision D.01,
 Gaussian 09:  AM64L-G09RevD.01 24-Apr-2013

 ------------------------------------------------------------------
 # hf/gen pseudo=read pop=(mk, readradii) iop(6/33=2,6/41=5,6/42=2)
 ------------------------------------------------------------------

 -------
 na resp
 -------
 Symbolic Z-matrix:
 Charge =  0 Multiplicity = 1

                         Standard orientation:
 ---------------------------------------------------------------------
 Center     Atomic      Atomic             Coordinates (Angstroms)
 Number     Number       Type             X           Y           Z
 ---------------------------------------------------------------------
      1          6           0       -1.133393    2.871734    0.472129
      2          6           0        0.164827    2.364682    0.539665
      3          6           0        0.398312    0.995143    0.379332
      4          6           0       -0.687001    0.134463    0.157679
      5          6           0       -1.974887    0.656004    0.081979
      6          6           0       -2.215620    2.021572    0.238613
      7         53           0       -3.621436   -0.673872   -0.267393
      8          6           0        1.813694    0.462600    0.401595
      9          1           0        2.489331    1.250287    0.745848
     10          6           0        3.423593   -0.862709   -0.773275
     11          1           0        3.533750   -1.440779   -1.699058
     12          6           0        3.243688   -1.813935    0.433070
     13         16           0        2.046577   -0.999225    1.569659
     14          6           0        4.713335   -0.014814   -0.655242
     15          8           0        4.596725    1.210164   -1.196385
     16          1           0       -1.307726    3.936144    0.601731
     17          1           0        1.000735    3.036056    0.717536
     18          1           0       -0.516822   -0.933728    0.075588
     19          1           0       -3.224038    2.417138    0.186181
     20          1           0        2.833815   -2.776632    0.117909
     21          1           0        4.204397   -1.975923    0.925358
     22          7           0        2.266459    0.027876   -0.922396
     23          1           0        3.656112    1.287063   -1.482927
     24          1           0        1.506023   -0.444777   -1.407212
     25          8           0        5.737123   -0.427118   -0.168639
 ---------------------------------------------------------------------

 SCF Done:  E(RHF) =  -997.340550927     A.U. after   16 cycles

 The electronic state is 1-A.
 Alpha  occ. eigenvalues --  -91.94410 -20.61089 -20.55570 -15.60871 -11.39369
 Alpha  occ. eigenvalues --  -11.32632 -11.31165 -11.31132 -11.27701 -11.27606
 Alpha  occ. eigenvalues --  -11.26963 -11.26907 -11.26544 -11.26378  -8.95918
 Alpha  occ. eigenvalues --   -6.64096  -6.63989  -6.63765  -1.45943  -1.36462
 Alpha  occ. eigenvalues --   -1.27919  -1.18480  -1.08254  -1.05952  -1.04867
 Alpha  occ. eigenvalues --   -1.00468  -0.90751  -0.89947  -0.85991  -0.82661
 Alpha  occ. eigenvalues --   -0.81205  -0.80339  -0.73856  -0.72248  -0.70380
 Alpha  occ. eigenvalues --   -0.68094  -0.66095  -0.63731  -0.63046  -0.62353
 Alpha  occ. eigenvalues --   -0.61353  -0.58906  -0.58036  -0.57387  -0.55101
 Alpha  occ. eigenvalues --   -0.54513  -0.52956  -0.51023  -0.47891  -0.47152
 Alpha  occ. eigenvalues --   -0.46418  -0.44696  -0.41692  -0.40740  -0.37868
 Alpha  occ. eigenvalues --   -0.36696  -0.35029  -0.33754
 Alpha virt. eigenvalues --    0.09783   0.10072   0.10808   0.15582   0.16206
 Alpha virt. eigenvalues --    0.20975   0.21851   0.23064   0.25380   0.26239
 Alpha virt. eigenvalues --    0.28111   0.28966   0.29887   0.30323   0.31604

 Mulliken charges:
               1
     1  C   -0.198879
     2  C   -0.212349
     3  C    0.028264
     4  C   -0.147593
     5  C   -0.397710
     6  C   -0.141637
     7  I    0.200357
     8  C   -0.176339
     9  H    0.231857
    10  C   -0.122152
    11  H    0.240296
    12  C   -0.508616
    13  S    0.141050
    14  C    0.851425
    15  O   -0.764333
    16  H    0.223234
    17  H    0.224469
    18  H    0.245706
    19  H    0.233415
    20  H    0.208922
    21  H    0.262030
    22  N   -0.759797
    23  H    0.517156
    24  H    0.385233
    25  O   -0.564009
 Sum of Mulliken charges =   0.00000

 Dipole moment (field-independent basis, Debye):
    X=             -3.6377    Y=              0.5955    Z=             -2.0078  Tot=              4.1975
 Quadrupole moment (field-independent basis, Debye-Ang):
   XX=           -148.2291   YY=            -97.8643   ZZ=           -112.7783
   XY=             -7.9675   XZ=             -3.6654   YZ=              6.1075

 ESP charges:
               1
     1  C   -0.234369
     2  C   -0.153252
     3  C    0.128658
     4  C    0.149835
     5  C   -0.435719
     6  C    0.145256
     7  I    0.008174
     8  C    0.049395
     9  H    0.153231
    10  C   -0.143689
    11  H    0.149036
    12  C    0.154907
    13  S   -0.257736
    14  C    0.786885
    15  O   -0.597120
    16  H    0.165236
    17  H    0.149245
    18  H    0.064251
    19  H    0.108906
    20  H    0.050269
    21  H    0.042587
    22  N   -0.808894
    23  H    0.434961
    24  H    0.443103
    25  O   -0.553155
 Sum of ESP charges =   0.00000

 Normal termination of Gaussian 09 at Fri Jan 17 11:57:32 2014.
