 Gaussian 09, Revision D.01,
 Gaussian 09:  AM64L-G09RevD.01 24-Apr-2013

 -----------------------------------------
 # hf/gen pop=mk iop(6/33=2,6/41=5,6/42=2)
 -----------------------------------------

 -------
 na resp
 -------
 Symbolic Z-matrix:
 Charge =  0 Multiplicity = 1

                         Standard orientation:
 ---------------------------------------------------------------------
 Center     Atomic      Atomic             Coordinates (Angstroms)
 Number     Number       Type             X           Y           Z
 ---------------------------------------------------------------------
      1          6           0       -1.006242    0.614047   -0.072621
      2          6           0       -1.264867   -0.740186   -0.324985
      3          6           0       -2.567683   -1.234269   -0.293738
      4          6           0       -3.617097   -0.361737   -0.006898
      5          6           0       -3.385408    0.992838    0.236478
      6          6           0       -2.079834    1.472624    0.196752
      7         17           0       -5.260807   -0.978731    0.039273
      8          6           0        0.368080    1.218494   -0.092223
      9          7           0        1.420656    0.348907   -0.022279
     10          6           0        2.770894    0.856313    0.053254
     11          6           0        3.715266   -0.332427    0.148148
     12          7           0        5.026320   -0.079443   -0.097451
     13          8           0        5.879801   -1.192054   -0.135337
     14          8           0        0.546135    2.431851   -0.176227
     15          8           0        3.352074   -1.454139    0.511110
     16          1           0       -0.458598   -1.422006   -0.580063
     17          1           0       -2.768916   -2.280691   -0.495954
     18          1           0       -4.216001    1.656713    0.451158
     19          1           0       -1.868727    2.522361    0.371106
     20          1           0        1.304876   -0.608604    0.286123
     21          1           0        2.992797    1.478866   -0.821702
     22          1           0        2.910670    1.501068    0.933869
     23          1           0        5.321310    0.617093   -0.769717
     24          1           0        5.264740   -1.912083    0.134277
 ---------------------------------------------------------------------

 SCF Done:  E(RHF) =  -1138.97803064     A.U. after   16 cycles

 The electronic state is 1-A.
 Alpha  occ. eigenvalues -- -104.83064 -20.62326 -20.57236 -20.53837 -15.66454
 Alpha  occ. eigenvalues --  -15.60211 -11.39526 -11.37174 -11.32244 -11.30453
 Alpha  occ. eigenvalues --  -11.27129 -11.26589 -11.26369 -11.26213 -11.26077
 Alpha  occ. eigenvalues --  -10.56909  -8.03766  -8.03431  -8.03430  -1.46847
 Alpha  occ. eigenvalues --   -1.39610  -1.38875  -1.24875  -1.19996  -1.17690
 Alpha  occ. eigenvalues --   -1.13200  -1.04456  -1.03494  -0.99208  -0.87234
 Alpha  occ. eigenvalues --   -0.86068  -0.84514  -0.80685  -0.76840  -0.71955
 Alpha  occ. eigenvalues --   -0.71281  -0.68798  -0.67510  -0.66041  -0.64876
 Alpha  occ. eigenvalues --   -0.63910  -0.63475  -0.61511  -0.61210  -0.58919
 Alpha  occ. eigenvalues --   -0.58575  -0.57036  -0.54486  -0.53440  -0.52793
 Alpha  occ. eigenvalues --   -0.52476  -0.47530  -0.47226  -0.46269  -0.43967
 Alpha  occ. eigenvalues --   -0.41831  -0.40285  -0.36088  -0.34732
 Alpha virt. eigenvalues --    0.08286   0.11671   0.14870   0.18376   0.20515
 Alpha virt. eigenvalues --    0.22070   0.23511   0.25154   0.26762   0.27594
 Alpha virt. eigenvalues --    0.28739   0.30676   0.31922   0.33000   0.34671

 Mulliken charges:
               1
     1  C   -0.124660
     2  C   -0.198186
     3  C   -0.192353
     4  C   -0.125428
     5  C   -0.192038
     6  C   -0.172269
     7  Cl   0.011263
     8  C    0.850658
     9  N   -0.884921
    10  C   -0.154602
    11  C    0.750950
    12  N   -0.425241
    13  O   -0.623715
    14  O   -0.646040
    15  O   -0.664055
    16  H    0.230534
    17  H    0.240806
    18  H    0.241616
    19  H    0.264991
    20  H    0.435278
    21  H    0.217542
    22  H    0.236295
    23  H    0.412299
    24  H    0.511277
 Sum of Mulliken charges =   0.00000

 Dipole moment (field-independent basis, Debye):
    X=              1.0451    Y=             -0.2149    Z=             -0.7881  Tot=              1.3265
 Quadrupole moment (field-independent basis, Debye-Ang):
   XX=           -100.0413   YY=            -97.1904   ZZ=            -94.7354
   XY=              4.4802   XZ=             -6.2539   YZ=              2.6844

 ESP charges:
               1
     1  C   -0.188678
     2  C   -0.125204
     3  C   -0.039124
     4  C   -0.025496
     5  C   -0.046937
     6  C   -0.099907
     7  Cl  -0.102231
     8  C    0.782765
     9  N   -0.507474
    10  C   -0.320876
    11  C    0.778487
    12  N   -0.538535
    13  O   -0.402734
    14  O   -0.594620
    15  O   -0.563889
    16  H    0.121545
    17  H    0.131004
    18  H    0.130839
    19  H    0.147100
    20  H    0.313580
    21  H    0.147870
    22  H    0.170704
    23  H    0.421057
    24  H    0.410754
 Sum of ESP charges =   0.00000

 Normal termination of Gaussian 09 at Thu Jan 16 21:49:22 2014.
