 Gaussian 09, Revision D.01,
 Gaussian 09:  AM64L-G09RevD.01 24-Apr-2013

 -----------------------------------------
 # hf/gen pop=mk iop(6/33=2,6/41=5,6/42=2)
 -----------------------------------------

 -------
 na resp
 -------
 Symbolic Z-matrix:
 Charge =  0 Multiplicity = 1

                         Standard orientation:
 ---------------------------------------------------------------------
 Center     Atomic      Atomic             Coordinates (Angstroms)
 Number     Number       Type             X           Y           Z
 ---------------------------------------------------------------------
      1          6           0       -3.767727   -1.322626   -1.031337
      2          6           0       -3.550625    0.139211   -0.625704
      3          6           0       -4.806098    0.714509    0.035234
      4          7           0       -2.423756    0.254127    0.321946
      5          6           0       -1.082178    0.158240   -0.265366
      6          6           0       -0.069430   -0.061568    0.880512
      7          1           0       -0.025094    0.860656    1.483480
      8          6           0        1.319922   -0.359166    0.349467
      9          6           0        1.758707   -1.686719    0.250226
     10          6           0        3.017320   -2.001778   -0.257567
     11          6           0        3.873376   -0.984462   -0.680697
     12          6           0        3.465506    0.345458   -0.590921
     13          6           0        2.202016    0.640749   -0.080353
     14         17           0        1.744207    2.349593    0.018241
     15          8           0       -0.520338   -1.141426    1.679249
     16          1           0       -4.009723   -1.928687   -0.150829
     17          1           0       -4.594680   -1.400569   -1.746119
     18          1           0       -2.880804   -1.754561   -1.506194
     19          1           0       -3.344386    0.725608   -1.540106
     20          1           0       -5.032486    0.174119    0.961874
     21          1           0       -4.677380    1.776185    0.281290
     22          1           0       -5.669804    0.630115   -0.632332
     23          1           0       -1.049907   -0.721096   -0.916292
     24          1           0       -0.803760    1.034354   -0.871048
     25          1           0        1.088051   -2.463000    0.601294
     26          1           0        3.330580   -3.040345   -0.318018
     27          1           0        4.858206   -1.218140   -1.075474
     28          1           0        4.116736    1.152759   -0.908802
     29          1           0       -1.495824   -1.060673    1.637054
     30          1           0       -2.496987    1.151626    0.801532
 ---------------------------------------------------------------------

 SCF Done:  E(RHF) =  -1014.64008096     A.U. after   15 cycles

 The electronic state is 1-A.
 Alpha  occ. eigenvalues -- -104.81890 -20.54553 -15.56002 -11.30186 -11.28542
 Alpha  occ. eigenvalues --  -11.26563 -11.25439 -11.25182 -11.24633 -11.24218
 Alpha  occ. eigenvalues --  -11.23883 -11.23531 -11.22185 -11.21654 -10.55722
 Alpha  occ. eigenvalues --   -8.02576  -8.02259  -8.02252  -1.35436  -1.21700
 Alpha  occ. eigenvalues --   -1.18266  -1.10973  -1.05842  -1.03498  -0.99440
 Alpha  occ. eigenvalues --   -0.95359  -0.93861  -0.85821  -0.82238  -0.79365
 Alpha  occ. eigenvalues --   -0.78923  -0.69796  -0.68128  -0.67004  -0.64757
 Alpha  occ. eigenvalues --   -0.64384  -0.62740  -0.61092  -0.60675  -0.58583
 Alpha  occ. eigenvalues --   -0.57715  -0.54909  -0.54256  -0.53580  -0.53002
 Alpha  occ. eigenvalues --   -0.51798  -0.51480  -0.50103  -0.49861  -0.48347
 Alpha  occ. eigenvalues --   -0.46965  -0.46052  -0.45371  -0.43179  -0.38706
 Alpha  occ. eigenvalues --   -0.33455  -0.32807
 Alpha virt. eigenvalues --    0.13202   0.13525   0.19682   0.21205   0.24891
 Alpha virt. eigenvalues --    0.26342   0.26460   0.27136   0.28611   0.29860
 Alpha virt. eigenvalues --    0.30299   0.30666   0.30985   0.32391   0.32611

 Mulliken charges:
               1
     1  C   -0.484123
     2  C    0.058114
     3  C   -0.504089
     4  N   -0.788896
     5  C   -0.144458
     6  C    0.206699
     7  H    0.179557
     8  C   -0.004036
     9  C   -0.200543
    10  C   -0.198652
    11  C   -0.200487
    12  C   -0.178964
    13  C   -0.168020
    14  Cl  -0.017731
    15  O   -0.824179
    16  H    0.170825
    17  H    0.164066
    18  H    0.170414
    19  H    0.148799
    20  H    0.176430
    21  H    0.161869
    22  H    0.173005
    23  H    0.183222
    24  H    0.177861
    25  H    0.249784
    26  H    0.211153
    27  H    0.211998
    28  H    0.229752
    29  H    0.488708
    30  H    0.351922
 Sum of Mulliken charges =   0.00000

 Dipole moment (field-independent basis, Debye):
    X=             -1.3807    Y=             -0.0290    Z=             -1.8857  Tot=              2.3373
 Quadrupole moment (field-independent basis, Debye-Ang):
   XX=            -79.6113   YY=            -91.8571   ZZ=            -97.4778
   XY=             -5.6514   XZ=             -2.8525   YZ=              3.0655

 ESP charges:
               1
     1  C   -0.533769
     2  C    0.647853
     3  C   -0.567636
     4  N   -0.797433
     5  C    0.095196
     6  C    0.316777
     7  H    0.004833
     8  C    0.250736
     9  C   -0.266840
    10  C   -0.099836
    11  C   -0.221407
    12  C   -0.003217
    13  C   -0.188260
    14  Cl  -0.110751
    15  O   -0.692273
    16  H    0.145925
    17  H    0.108558
    18  H    0.148885
    19  H   -0.045082
    20  H    0.141806
    21  H    0.123875
    22  H    0.141321
    23  H    0.017960
    24  H    0.008099
    25  H    0.189360
    26  H    0.142708
    27  H    0.160199
    28  H    0.126614
    29  H    0.413034
    30  H    0.342765
 Sum of ESP charges =   0.00000

 Normal termination of Gaussian 09 at Thu Jan 16 21:49:41 2014.
