 Gaussian 09, Revision D.01,
 Gaussian 09:  AM64L-G09RevD.01 24-Apr-2013

 -----------------------------------------
 # hf/gen pop=mk iop(6/33=2,6/41=5,6/42=2)
 -----------------------------------------

 -------
 na resp
 -------
 Symbolic Z-matrix:
 Charge =  0 Multiplicity = 1

                         Standard orientation:
 ---------------------------------------------------------------------
 Center     Atomic      Atomic             Coordinates (Angstroms)
 Number     Number       Type             X           Y           Z
 ---------------------------------------------------------------------
      1          6           0       -6.873118    0.099756    0.000851
      2          6           0       -5.655618   -0.805345   -0.000971
      3          8           0       -4.484859    0.041827   -0.001057
      4          6           0       -3.294633   -0.601096   -0.000187
      5          8           0       -3.192223   -1.811498    0.000342
      6          6           0       -2.138191    0.345984    0.000001
      7          6           0       -2.317492    1.734537   -0.000053
      8          6           0       -1.198139    2.564896    0.000173
      9          6           0        0.082239    2.019594    0.000377
     10          6           0        0.262228    0.626954    0.000376
     11          6           0       -0.855292   -0.215070    0.000240
     12          7           0        1.592300    0.153266    0.000548
     13          6           0        2.034180   -1.134597    0.000235
     14          8           0        1.338372   -2.139834   -0.000167
     15          6           0        3.549425   -1.361632    0.000933
     16         35           0        4.721922    0.237303   -0.000395
     17          1           0       -7.785840   -0.506012    0.000721
     18          1           0       -6.884769    0.739170    0.889491
     19          1           0       -6.885896    0.741224   -0.886292
     20          1           0       -5.622920   -1.450843   -0.884581
     21          1           0       -5.621508   -1.452762    0.881137
     22          1           0       -3.317786    2.150521   -0.000264
     23          1           0       -1.319939    3.644255    0.000186
     24          1           0        0.950873    2.674886    0.000553
     25          1           0       -0.740392   -1.289858    0.000282
     26          1           0        2.314490    0.864576    0.000695
     27          1           0        3.817954   -1.929769    0.890719
     28          1           0        3.818500   -1.931699   -0.887447
 ---------------------------------------------------------------------

 SCF Done:  E(RHF) =  -3272.20237825     A.U. after   17 cycles

 The electronic state is 1-A.
 Alpha  occ. eigenvalues -- -489.85847 -64.40303 -58.56947 -58.56801 -58.56787
 Alpha  occ. eigenvalues --  -20.60205 -20.54986 -20.54532 -15.62153 -11.38853
 Alpha  occ. eigenvalues --  -11.38367 -11.32212 -11.30065 -11.28717 -11.25584
 Alpha  occ. eigenvalues --  -11.25479 -11.24975 -11.24658 -11.24197 -11.22407
 Alpha  occ. eigenvalues --   -9.68069  -7.49604  -7.48794  -7.48738  -3.23895
 Alpha  occ. eigenvalues --   -3.23533  -3.23476  -3.22539  -3.22538  -1.45181
 Alpha  occ. eigenvalues --   -1.40478  -1.34979  -1.27347  -1.16000  -1.08613
 Alpha  occ. eigenvalues --   -1.05564  -1.02820  -1.01984  -0.94394  -0.90215
 Alpha  occ. eigenvalues --   -0.86609  -0.84633  -0.79131  -0.78492  -0.74335
 Alpha  occ. eigenvalues --   -0.69691  -0.68959  -0.67648  -0.66608  -0.66511
 Alpha  occ. eigenvalues --   -0.65924  -0.62599  -0.60679  -0.60095  -0.58892
 Alpha  occ. eigenvalues --   -0.58013  -0.56950  -0.54954  -0.54077  -0.52985
 Alpha  occ. eigenvalues --   -0.52111  -0.51859  -0.50589  -0.50269  -0.45343
 Alpha  occ. eigenvalues --   -0.45314  -0.44964  -0.44200  -0.42297  -0.41780
 Alpha  occ. eigenvalues --   -0.34948  -0.31829
 Alpha virt. eigenvalues --    0.08987   0.12270   0.13741   0.18878   0.22484
 Alpha virt. eigenvalues --    0.23877   0.24121   0.24625   0.26131   0.29131
 Alpha virt. eigenvalues --    0.30077   0.30235   0.30301   0.31283   0.32145

 Mulliken charges:
               1
     1  C   -0.513293
     2  C    0.011213
     3  O   -0.699195
     4  C    0.901819
     5  O   -0.599575
     6  C   -0.154280
     7  C   -0.188213
     8  C   -0.204948
     9  C   -0.245291
    10  C    0.373418
    11  C   -0.219302
    12  N   -0.962068
    13  C    0.806897
    14  O   -0.609430
    15  C   -0.387891
    16  Br  -0.188623
    17  H    0.172832
    18  H    0.180018
    19  H    0.180023
    20  H    0.186589
    21  H    0.186734
    22  H    0.245085
    23  H    0.215888
    24  H    0.214202
    25  H    0.324802
    26  H    0.437419
    27  H    0.267575
    28  H    0.267594
 Sum of Mulliken charges =   0.00000

 Dipole moment (field-independent basis, Debye):
    X=              0.3433    Y=              3.5865    Z=              0.0025  Tot=              3.6029
 Quadrupole moment (field-independent basis, Debye-Ang):
   XX=            -86.6365   YY=           -108.1702   ZZ=           -107.2109
   XY=             -5.9580   XZ=              0.0100   YZ=             -0.0010

 ESP charges:
               1
     1  C   -0.349453
     2  C    0.330762
     3  O   -0.477135
     4  C    0.830928
     5  O   -0.604676
     6  C   -0.070669
     7  C   -0.198990
     8  C   -0.066319
     9  C   -0.337393
    10  C    0.422732
    11  C   -0.324209
    12  N   -0.641331
    13  C    0.968450
    14  O   -0.613572
    15  C   -0.806189
    16  Br  -0.057504
    17  H    0.086040
    18  H    0.102670
    19  H    0.102707
    20  H    0.018866
    21  H    0.018984
    22  H    0.155424
    23  H    0.141963
    24  H    0.191770
    25  H    0.230683
    26  H    0.309196
    27  H    0.318134
    28  H    0.318132
 Sum of ESP charges =   0.00000

 Normal termination of Gaussian 09 at Thu Jan 16 22:40:40 2014.
