 Gaussian 09, Revision D.01,
 Gaussian 09:  AM64L-G09RevD.01 24-Apr-2013

 ------------------------------------------------------------------
 # hf/gen pseudo=read pop=(mk, readradii) iop(6/33=2,6/41=5,6/42=2)
 ------------------------------------------------------------------

 -------
 na resp
 -------
 Symbolic Z-matrix:
 Charge =  0 Multiplicity = 1

                         Standard orientation:
 ---------------------------------------------------------------------
 Center     Atomic      Atomic             Coordinates (Angstroms)
 Number     Number       Type             X           Y           Z
 ---------------------------------------------------------------------
      1          6           0        0.497510    2.209974    0.753224
      2          6           0       -0.588630    1.380319    0.488408
      3          6           0       -0.378873    0.072361    0.031232
      4          6           0        0.928793   -0.391308   -0.149373
      5          6           0        2.006528    0.450783    0.123967
      6          6           0        1.807762    1.753012    0.574033
      7         53           0        4.003130   -0.281804   -0.161339
      8          6           0       -1.537587   -0.859389   -0.261310
      9          1           0       -1.138328   -1.794614   -0.675137
     10          6           0       -3.937001   -0.611194   -0.840859
     11          1           0       -4.471395   -0.977441   -1.726429
     12          6           0       -3.951704   -1.674411    0.263431
     13         16           0       -2.479285   -1.274322    1.275065
     14          6           0       -4.684396    0.668613   -0.388058
     15          8           0       -4.014984    1.800834   -0.643498
     16          1           0        0.330654    3.223280    1.107704
     17          1           0       -1.600492    1.741633    0.642601
     18          1           0        1.099355   -1.404008   -0.500777
     19          1           0        2.649302    2.403952    0.783955
     20          1           0       -4.855030   -1.593991    0.870594
     21          1           0       -3.874288   -2.685729   -0.147940
     22          7           0       -2.537819   -0.282681   -1.196987
     23          1           0       -2.319852   -0.575561   -2.145713
     24          1           0       -3.143588    1.495017   -1.004687
     25          8           0       -5.782937    0.633967    0.113060
 ---------------------------------------------------------------------

 SCF Done:  E(RHF) =  -997.339127178     A.U. after   16 cycles

 The electronic state is 1-A.
 Alpha  occ. eigenvalues --  -91.95417 -20.60496 -20.54833 -15.60645 -11.38707
 Alpha  occ. eigenvalues --  -11.32838 -11.31012 -11.30713 -11.28282 -11.27111
 Alpha  occ. eigenvalues --  -11.26687 -11.26400 -11.25854 -11.25674  -8.96925
 Alpha  occ. eigenvalues --   -6.65099  -6.64999  -6.64764  -1.45370  -1.35827
 Alpha  occ. eigenvalues --   -1.27056  -1.18020  -1.08081  -1.07186  -1.04338
 Alpha  occ. eigenvalues --   -1.00713  -0.90033  -0.89178  -0.85498  -0.83851
 Alpha  occ. eigenvalues --   -0.80312  -0.78284  -0.74385  -0.72641  -0.70975
 Alpha  occ. eigenvalues --   -0.67169  -0.66128  -0.64144  -0.63079  -0.61799
 Alpha  occ. eigenvalues --   -0.61140  -0.58631  -0.56869  -0.56605  -0.54934
 Alpha  occ. eigenvalues --   -0.54806  -0.52709  -0.50829  -0.46981  -0.46795
 Alpha  occ. eigenvalues --   -0.46368  -0.45393  -0.41824  -0.40178  -0.37600
 Alpha  occ. eigenvalues --   -0.36772  -0.35513  -0.33140
 Alpha virt. eigenvalues --    0.10105   0.10298   0.11617   0.15361   0.16226
 Alpha virt. eigenvalues --    0.20266   0.23016   0.24516   0.24757   0.26314
 Alpha virt. eigenvalues --    0.26773   0.28860   0.29788   0.30546   0.31547

 Mulliken charges:
               1
     1  C   -0.204065
     2  C   -0.203340
     3  C    0.043256
     4  C   -0.158169
     5  C   -0.395201
     6  C   -0.142664
     7  I    0.194495
     8  C   -0.176077
     9  H    0.211323
    10  C   -0.086476
    11  H    0.229096
    12  C   -0.518131
    13  S    0.179839
    14  C    0.857338
    15  O   -0.770324
    16  H    0.224670
    17  H    0.244433
    18  H    0.226693
    19  H    0.231895
    20  H    0.263349
    21  H    0.211210
    22  N   -0.796509
    23  H    0.380955
    24  H    0.529455
    25  O   -0.577052
 Sum of Mulliken charges =   0.00000

 Dipole moment (field-independent basis, Debye):
    X=              2.1859    Y=             -2.4476    Z=             -3.1363  Tot=              4.5393
 Quadrupole moment (field-independent basis, Debye-Ang):
   XX=           -140.8506   YY=           -105.0244   ZZ=           -107.8355
   XY=             18.2867   XZ=             10.6559   YZ=              6.6775

 ESP charges:
               1
     1  C   -0.335089
     2  C    0.045923
     3  C   -0.010478
     4  C    0.292070
     5  C   -0.505229
     6  C    0.199654
     7  I    0.006954
     8  C   -0.231970
     9  H    0.222489
    10  C    0.078780
    11  H    0.079309
    12  C   -0.133276
    13  S   -0.124131
    14  C    0.692725
    15  O   -0.518197
    16  H    0.179679
    17  H    0.121923
    18  H    0.022216
    19  H    0.104354
    20  H    0.154677
    21  H    0.092313
    22  N   -0.529420
    23  H    0.344838
    24  H    0.312269
    25  O   -0.562383
 Sum of ESP charges =   0.00000

 Normal termination of Gaussian 09 at Fri Jan 17 11:57:36 2014.
