 Gaussian 09, Revision D.01,
 Gaussian 09:  AM64L-G09RevD.01 24-Apr-2013

 ------------------------------------------------------------------
 # hf/gen pseudo=read pop=(mk, readradii) iop(6/33=2,6/41=5,6/42=2)
 ------------------------------------------------------------------

 -------
 na resp
 -------
 Symbolic Z-matrix:
 Charge =  0 Multiplicity = 1

                         Standard orientation:
 ---------------------------------------------------------------------
 Center     Atomic      Atomic             Coordinates (Angstroms)
 Number     Number       Type             X           Y           Z
 ---------------------------------------------------------------------
      1          6           0       -1.200565   -1.396515    0.000028
      2          6           0       -2.499720   -1.771633    0.000008
      3          6           0       -3.588439   -0.801819    0.000612
      4          8           0       -4.771525   -1.051269   -0.000474
      5          8           0       -3.195517    0.532447    0.000163
      6          6           0       -1.885885    0.925384    0.000039
      7          6           0       -0.824777   -0.001408    0.000101
      8          6           0        0.496119    0.500719    0.000046
      9          6           0        0.772433    1.876264   -0.000020
     10          6           0       -0.338440    2.758967   -0.000065
     11          6           0       -1.640410    2.299412   -0.000059
     12          7           0        2.038971    2.404243   -0.000133
     13         53           0        2.161129   -0.869548   -0.000011
     14          1           0       -0.419357   -2.149127   -0.000148
     15          1           0       -2.798362   -2.813540   -0.000375
     16          1           0       -0.146901    3.829040   -0.000133
     17          1           0       -2.480801    2.985042   -0.000090
     18          1           0        2.856875    1.817681    0.000322
     19          1           0        2.170328    3.401582    0.000267
 ---------------------------------------------------------------------

 SCF Done:  E(RHF) =  -559.625097867     A.U. after   16 cycles

 The electronic state is 1-A.
 Alpha  occ. eigenvalues --  -20.62874 -20.54517 -15.58495 -11.39339 -11.32503
 Alpha  occ. eigenvalues --  -11.31932 -11.30965 -11.28725 -11.28327 -11.26334
 Alpha  occ. eigenvalues --  -11.26205 -11.26106  -1.46909  -1.36764  -1.25261
 Alpha  occ. eigenvalues --   -1.16892  -1.11648  -1.04176  -1.02126  -0.91532
 Alpha  occ. eigenvalues --   -0.89721  -0.87940  -0.82929  -0.77093  -0.73724
 Alpha  occ. eigenvalues --   -0.73424  -0.68010  -0.67685  -0.65552  -0.63248
 Alpha  occ. eigenvalues --   -0.62959  -0.61111  -0.58913  -0.56701  -0.56668
 Alpha  occ. eigenvalues --   -0.54038  -0.51183  -0.47744  -0.46887  -0.44632
 Alpha  occ. eigenvalues --   -0.41838  -0.40204  -0.38862  -0.33501  -0.29290
 Alpha virt. eigenvalues --    0.05461   0.09524   0.13881   0.15261   0.21373
 Alpha virt. eigenvalues --    0.23872   0.25647   0.27788   0.28704   0.31323
 Alpha virt. eigenvalues --    0.32207   0.34783   0.38005   0.39361   0.41389

 Mulliken charges:
               1
     1  C   -0.121853
     2  C   -0.362547
     3  C    0.859067
     4  O   -0.575415
     5  O   -0.730073
     6  C    0.407648
     7  C    0.041663
     8  C   -0.514037
     9  C    0.490191
    10  C   -0.251240
    11  C   -0.212483
    12  N   -1.018686
    13  I    0.201869
    14  H    0.259327
    15  H    0.249378
    16  H    0.218490
    17  H    0.249832
    18  H    0.410514
    19  H    0.398355
 Sum of Mulliken charges =   0.00000

 Dipole moment (field-independent basis, Debye):
    X=              5.6563    Y=              2.3852    Z=              0.0036  Tot=              6.1386
 Quadrupole moment (field-independent basis, Debye-Ang):
   XX=           -113.0523   YY=            -70.8765   ZZ=            -92.8946
   XY=              0.4210   XZ=             -0.0053   YZ=              0.0027

 ESP charges:
               1
     1  C    0.071792
     2  C   -0.553975
     3  C    0.966175
     4  O   -0.605236
     5  O   -0.500390
     6  C    0.355369
     7  C    0.122415
     8  C   -0.618367
     9  C    0.814977
    10  C   -0.401673
    11  C   -0.221587
    12  N   -1.138815
    13  I    0.022599
    14  H    0.143337
    15  H    0.218051
    16  H    0.201447
    17  H    0.210505
    18  H    0.458077
    19  H    0.455299
 Sum of ESP charges =   0.00000

 Normal termination of Gaussian 09 at Fri Jan 17 11:55:01 2014.
