 Gaussian 09, Revision D.01,
 Gaussian 09:  AM64L-G09RevD.01 24-Apr-2013

 -----------------------------------------
 # hf/gen pop=mk iop(6/33=2,6/41=5,6/42=2)
 -----------------------------------------

 -------
 na resp
 -------
 Symbolic Z-matrix:
 Charge =  0 Multiplicity = 1

                         Standard orientation:
 ---------------------------------------------------------------------
 Center     Atomic      Atomic             Coordinates (Angstroms)
 Number     Number       Type             X           Y           Z
 ---------------------------------------------------------------------
      1         16           0       -0.878298   -0.830709    0.100562
      2          6           0        0.696538    0.054258   -0.047105
      3          7           0        0.667581    1.328758   -0.143732
      4          6           0       -0.681642    1.850187   -0.018516
      5          6           0       -1.731751    0.745385   -0.344154
      6          7           0        1.814058   -0.735637   -0.035608
      7          6           0        3.168191   -0.372247   -0.015539
      8          7           0        3.981833   -1.437786   -0.008326
      9          6           0        5.298965   -1.214001    0.018322
     10          6           0        5.866739    0.058437    0.040790
     11          6           0        5.001917    1.154633    0.030494
     12          6           0        3.625467    0.954888   -0.000737
     13          6           0       -3.026899    0.949935    0.415962
     14         35           0       -4.383143   -0.416992   -0.039047
     15          1           0       -1.936623    0.718239   -1.418657
     16          1           0        5.395584    2.167599    0.044009
     17          1           0        6.944510    0.183224    0.062878
     18          1           0        5.927393   -2.103053    0.022135
     19          1           0        2.917118    1.771723   -0.019164
     20          1           0       -0.832869    2.220537    1.008148
     21          1           0       -0.820638    2.703211   -0.692370
     22          1           0       -2.885141    0.880522    1.494312
     23          1           0       -3.483052    1.907430    0.157532
     24          1           0        1.687039   -1.739565   -0.064594
 ---------------------------------------------------------------------

 SCF Done:  E(RHF) =  -3477.08247426     A.U. after   16 cycles

 The electronic state is 1-A.
 Alpha  occ. eigenvalues -- -489.83777 -91.95988 -64.38223 -58.54872 -58.54719
 Alpha  occ. eigenvalues --  -58.54714 -15.61038 -15.56611 -15.55406 -11.36175
 Alpha  occ. eigenvalues --  -11.32677 -11.31182 -11.29383 -11.27825 -11.27781
 Alpha  occ. eigenvalues --  -11.25841 -11.23281 -11.23064  -9.65980  -8.97553
 Alpha  occ. eigenvalues --   -7.47525  -7.46679  -7.46666  -6.65728  -6.65617
 Alpha  occ. eigenvalues --   -6.65399  -3.21815  -3.21427  -3.21414  -3.20441
 Alpha  occ. eigenvalues --   -3.20440  -1.32135  -1.26425  -1.20627  -1.11473
 Alpha  occ. eigenvalues --   -1.08408  -1.03529  -1.01473  -0.98114  -0.90598
 Alpha  occ. eigenvalues --   -0.86818  -0.86158  -0.80984  -0.77968  -0.72723
 Alpha  occ. eigenvalues --   -0.68067  -0.67815  -0.66464  -0.64399  -0.62651
 Alpha  occ. eigenvalues --   -0.61512  -0.60044  -0.58588  -0.56830  -0.55369
 Alpha  occ. eigenvalues --   -0.54775  -0.53518  -0.51952  -0.50331  -0.46197
 Alpha  occ. eigenvalues --   -0.42476  -0.42298  -0.41896  -0.40564  -0.39652
 Alpha  occ. eigenvalues --   -0.37795  -0.35266  -0.31106
 Alpha virt. eigenvalues --    0.11959   0.12787   0.13382   0.16527   0.20517
 Alpha virt. eigenvalues --    0.22641   0.23185   0.24704   0.25460   0.26695
 Alpha virt. eigenvalues --    0.27802   0.29620   0.30108   0.31927   0.32963

 Mulliken charges:
               1
     1  S    0.195083
     2  C    0.454276
     3  N   -0.586654
     4  C   -0.102890
     5  C   -0.367895
     6  N   -0.919893
     7  C    0.618512
     8  N   -0.614021
     9  C    0.082503
    10  C   -0.282419
    11  C   -0.136187
    12  C   -0.285154
    13  C   -0.312634
    14  Br  -0.179303
    15  H    0.238606
    16  H    0.219098
    17  H    0.210508
    18  H    0.209586
    19  H    0.284542
    20  H    0.179601
    21  H    0.192300
    22  H    0.239851
    23  H    0.233035
    24  H    0.429548
 Sum of Mulliken charges =   0.00000

 Dipole moment (field-independent basis, Debye):
    X=              1.1240    Y=              2.6195    Z=              0.2702  Tot=              2.8632
 Quadrupole moment (field-independent basis, Debye-Ang):
   XX=            -96.0062   YY=            -98.2093   ZZ=           -104.9299
   XY=             -3.8411   XZ=             -0.0220   YZ=              0.7811

 ESP charges:
               1
     1  S   -0.242965
     2  C    0.664751
     3  N   -0.632237
     4  C    0.206693
     5  C    0.055008
     6  N   -0.860858
     7  C    1.003180
     8  N   -0.775396
     9  C    0.408606
    10  C   -0.557585
    11  C    0.204101
    12  C   -0.622082
    13  C   -0.579485
    14  Br  -0.064503
    15  H    0.121317
    16  H    0.117891
    17  H    0.204467
    18  H    0.075659
    19  H    0.229085
    20  H    0.046952
    21  H    0.046197
    22  H    0.264294
    23  H    0.244360
    24  H    0.442550
 Sum of ESP charges =   0.00000

 Normal termination of Gaussian 09 at Thu Jan 16 22:39:45 2014.
