 Gaussian 09, Revision D.01,
 Gaussian 09:  AM64L-G09RevD.01 24-Apr-2013

 -----------------------------------------
 # hf/gen pop=mk iop(6/33=2,6/41=5,6/42=2)
 -----------------------------------------

 -------
 na resp
 -------
 Symbolic Z-matrix:
 Charge =  0 Multiplicity = 1

                         Standard orientation:
 ---------------------------------------------------------------------
 Center     Atomic      Atomic             Coordinates (Angstroms)
 Number     Number       Type             X           Y           Z
 ---------------------------------------------------------------------
      1          6           0       -6.692601   -1.019212   -0.091749
      2          7           0       -5.613342   -0.046404    0.007279
      3          6           0       -6.034334    1.337293    0.137303
      4          6           0       -4.312579   -0.487171   -0.040466
      5          8           0       -4.032045   -1.678050   -0.148273
      6          6           0       -3.202303    0.564674    0.048601
      7          6           0       -1.822319   -0.083857   -0.053973
      8          7           0       -0.789150    0.930497    0.110190
      9          6           0        0.564496    0.607465    0.049951
     10          6           0        1.032879   -0.713351    0.174686
     11          6           0        2.400455   -0.988339    0.160056
     12          6           0        3.317391    0.046711    0.011266
     13          6           0        2.877274    1.363496   -0.122945
     14          6           0        1.515255    1.637125   -0.102398
     15         35           0        5.194201   -0.335318   -0.016352
     16          1           0       -7.325032   -0.983648    0.805130
     17          1           0       -7.321798   -0.806368   -0.966194
     18          1           0       -6.254557   -2.011203   -0.189906
     19          1           0       -6.601872    1.657038   -0.748083
     20          1           0       -6.685124    1.456832    1.014152
     21          1           0       -5.182239    2.004374    0.256552
     22          1           0       -3.271795    1.114147    0.996389
     23          1           0       -3.327982    1.307277   -0.752583
     24          1           0       -1.733497   -0.628087   -1.006392
     25          1           0       -1.725269   -0.829929    0.739777
     26          1           0       -1.007298    1.814676   -0.333537
     27          1           0        0.335033   -1.536135    0.282195
     28          1           0        2.746328   -2.011933    0.257774
     29          1           0        3.593799    2.169176   -0.242417
     30          1           0        1.176372    2.666644   -0.198644
 ---------------------------------------------------------------------

 SCF Done:  E(RHF) =  -3178.63260185     A.U. after   16 cycles

 The electronic state is 1-A.
 Alpha  occ. eigenvalues -- -489.83071 -64.37447 -58.54129 -58.53958 -58.53948
 Alpha  occ. eigenvalues --  -20.52717 -15.59722 -15.57330 -11.36208 -11.28739
 Alpha  occ. eigenvalues --  -11.28063 -11.27768 -11.26480 -11.25711 -11.25358
 Alpha  occ. eigenvalues --  -11.24834 -11.24716 -11.23474 -11.23162  -9.65197
 Alpha  occ. eigenvalues --   -7.46754  -7.45897  -7.45879  -3.21068  -3.20658
 Alpha  occ. eigenvalues --   -3.20644  -3.19649  -3.19648  -1.38185  -1.24935
 Alpha  occ. eigenvalues --   -1.24836  -1.15115  -1.06603  -1.02505  -1.02195
 Alpha  occ. eigenvalues --   -0.98099  -0.95590  -0.92950  -0.87317  -0.83234
 Alpha  occ. eigenvalues --   -0.79677  -0.74508  -0.71834  -0.69313  -0.67315
 Alpha  occ. eigenvalues --   -0.66003  -0.65441  -0.64286  -0.63399  -0.60141
 Alpha  occ. eigenvalues --   -0.59573  -0.59020  -0.57694  -0.56703  -0.56506
 Alpha  occ. eigenvalues --   -0.55203  -0.54168  -0.52399  -0.51673  -0.50537
 Alpha  occ. eigenvalues --   -0.49711  -0.48540  -0.45352  -0.42316  -0.40166
 Alpha  occ. eigenvalues --   -0.39549  -0.37505  -0.34385  -0.28605
 Alpha virt. eigenvalues --    0.13416   0.14914   0.17589   0.18488   0.21075
 Alpha virt. eigenvalues --    0.22733   0.25171   0.26052   0.27221   0.28752
 Alpha virt. eigenvalues --    0.29065   0.29873   0.30424   0.30727   0.31767

 Mulliken charges:
               1
     1  C   -0.298807
     2  N   -0.690583
     3  C   -0.286107
     4  C    0.825055
     5  O   -0.643248
     6  C   -0.482200
     7  C   -0.066101
     8  N   -0.863904
     9  C    0.395278
    10  C   -0.272533
    11  C   -0.165438
    12  C   -0.025057
    13  C   -0.165221
    14  C   -0.265609
    15  Br  -0.160729
    16  H    0.168000
    17  H    0.167033
    18  H    0.242344
    19  H    0.178332
    20  H    0.181210
    21  H    0.189599
    22  H    0.212577
    23  H    0.187000
    24  H    0.183542
    25  H    0.201684
    26  H    0.363134
    27  H    0.227037
    28  H    0.232001
    29  H    0.230140
    30  H    0.201570
 Sum of Mulliken charges =   0.00000

 Dipole moment (field-independent basis, Debye):
    X=             -5.5327    Y=              3.9800    Z=             -0.4003  Tot=              6.8273
 Quadrupole moment (field-independent basis, Debye-Ang):
   XX=            -92.6055   YY=            -99.2335   ZZ=           -106.3062
   XY=            -12.4412   XZ=             -0.7982   YZ=             -2.9216

 ESP charges:
               1
     1  C   -0.287926
     2  N   -0.108651
     3  C   -0.342571
     4  C    0.577066
     5  O   -0.608280
     6  C   -0.221675
     7  C    0.334225
     8  N   -0.860203
     9  C    0.653321
    10  C   -0.434010
    11  C    0.111975
    12  C   -0.309157
    13  C    0.192913
    14  C   -0.559281
    15  Br  -0.085611
    16  H    0.108620
    17  H    0.109329
    18  H    0.155721
    19  H    0.130872
    20  H    0.138250
    21  H    0.116063
    22  H    0.086089
    23  H    0.086310
    24  H   -0.011335
    25  H    0.049402
    26  H    0.371900
    27  H    0.170564
    28  H    0.126250
    29  H    0.104045
    30  H    0.205786
 Sum of ESP charges =   0.00000

 Normal termination of Gaussian 09 at Thu Jan 16 22:40:09 2014.
