 Gaussian 09, Revision D.01,
 Gaussian 09:  AM64L-G09RevD.01 24-Apr-2013

 ------------------------------------------------------------------
 # hf/gen pseudo=read pop=(mk, readradii) iop(6/33=2,6/41=5,6/42=2)
 ------------------------------------------------------------------

 -------
 na resp
 -------
 Symbolic Z-matrix:
 Charge =  0 Multiplicity = 1

                         Standard orientation:
 ---------------------------------------------------------------------
 Center     Atomic      Atomic             Coordinates (Angstroms)
 Number     Number       Type             X           Y           Z
 ---------------------------------------------------------------------
      1          6           0       -4.204810    1.289421    0.234923
      2          6           0       -2.725708    1.506461    0.204836
      3          6           0       -1.678853    0.542366    0.087961
      4          6           0       -0.510761    1.266422    0.101518
      5          8           0       -0.843287    2.576179    0.225026
      6          7           0       -2.232751    2.721381    0.285172
      7          6           0        0.920443    0.981643   -0.001813
      8          6           0        1.779934    1.996516   -0.458286
      9          6           0        3.163272    1.797932   -0.570884
     10          6           0        3.649471    0.555374   -0.210594
     11          6           0        2.805642   -0.455047    0.247678
     12          6           0        1.445104   -0.281820    0.368640
     13          8           0        3.543351   -1.577035    0.535609
     14          6           0        4.910603   -1.225340    0.299284
     15          8           0        4.942536    0.107174   -0.232014
     16         53           0       -1.998020   -1.523259   -0.163645
     17          1           0       -4.547157    0.798505   -0.682872
     18          1           0       -4.489603    0.648020    1.076305
     19          1           0       -4.715686    2.250128    0.333410
     20          1           0        1.359480    2.957327   -0.731332
     21          1           0        3.822382    2.581810   -0.926866
     22          1           0        0.815757   -1.077283    0.744786
     23          1           0        5.466420   -1.252734    1.244908
     24          1           0        5.345915   -1.916837   -0.429913
 ---------------------------------------------------------------------

 SCF Done:  E(RHF) =  -711.311928640     A.U. after   16 cycles

 The electronic state is 1-A.
 Alpha  occ. eigenvalues --  -20.64992 -20.61888 -20.61499 -15.62537 -11.36695
 Alpha  occ. eigenvalues --  -11.34039 -11.32032 -11.31371 -11.29681 -11.28652
 Alpha  occ. eigenvalues --  -11.27103 -11.26267 -11.25928 -11.25622 -11.24050
 Alpha  occ. eigenvalues --   -1.49238  -1.48885  -1.38630  -1.18994  -1.17053
 Alpha  occ. eigenvalues --   -1.09930  -1.04036  -1.03318  -0.98876  -0.93418
 Alpha  occ. eigenvalues --   -0.90499  -0.87006  -0.86230  -0.78906  -0.78161
 Alpha  occ. eigenvalues --   -0.72644  -0.72436  -0.72066  -0.69833  -0.66199
 Alpha  occ. eigenvalues --   -0.64687  -0.63378  -0.60959  -0.59866  -0.58528
 Alpha  occ. eigenvalues --   -0.57629  -0.57567  -0.56276  -0.56048  -0.55445
 Alpha  occ. eigenvalues --   -0.54480  -0.52204  -0.51092  -0.48079  -0.46813
 Alpha  occ. eigenvalues --   -0.44114  -0.40100  -0.38269  -0.36314  -0.34233
 Alpha  occ. eigenvalues --   -0.29966
 Alpha virt. eigenvalues --    0.08249   0.10801   0.13011   0.17813   0.23297
 Alpha virt. eigenvalues --    0.24687   0.25028   0.25292   0.27610   0.29347
 Alpha virt. eigenvalues --    0.29599   0.30456   0.31509   0.32609   0.33135

 Mulliken charges:
               1
     1  C   -0.551830
     2  C    0.355004
     3  C   -0.608388
     4  C    0.567506
     5  O   -0.553366
     6  N   -0.166626
     7  C   -0.089027
     8  C   -0.194116
     9  C   -0.246123
    10  C    0.405971
    11  C    0.378093
    12  C   -0.224871
    13  O   -0.712961
    14  C    0.332222
    15  O   -0.709601
    16  I    0.265234
    17  H    0.202483
    18  H    0.201752
    19  H    0.217428
    20  H    0.256447
    21  H    0.240832
    22  H    0.258085
    23  H    0.186005
    24  H    0.189848
 Sum of Mulliken charges =   0.00000

 Dipole moment (field-independent basis, Debye):
    X=              1.3915    Y=             -2.1911    Z=             -0.1954  Tot=              2.6030
 Quadrupole moment (field-independent basis, Debye-Ang):
   XX=            -88.2193   YY=           -111.3758   ZZ=           -107.7898
   XY=              1.0622   XZ=              0.7670   YZ=             -2.8935

 ESP charges:
               1
     1  C   -0.500736
     2  C    0.755216
     3  C   -0.737257
     4  C    0.771633
     5  O   -0.200301
     6  N   -0.476880
     7  C   -0.289309
     8  C   -0.080892
     9  C   -0.354397
    10  C    0.361227
    11  C    0.341266
    12  C   -0.285069
    13  O   -0.450475
    14  C    0.366692
    15  O   -0.442184
    16  I    0.061743
    17  H    0.140308
    18  H    0.140844
    19  H    0.153496
    20  H    0.159780
    21  H    0.219807
    22  H    0.214022
    23  H    0.059799
    24  H    0.071668
 Sum of ESP charges =   0.00000

 Normal termination of Gaussian 09 at Fri Jan 17 11:57:32 2014.
