 Gaussian 09, Revision D.01,
 Gaussian 09:  AM64L-G09RevD.01 24-Apr-2013

 -----------------------------------------
 # hf/gen pop=mk iop(6/33=2,6/41=5,6/42=2)
 -----------------------------------------

 -------
 na resp
 -------
 Symbolic Z-matrix:
 Charge =  0 Multiplicity = 1

                         Standard orientation:
 ---------------------------------------------------------------------
 Center     Atomic      Atomic             Coordinates (Angstroms)
 Number     Number       Type             X           Y           Z
 ---------------------------------------------------------------------
      1          6           0        2.511107    1.430086   -0.229008
      2          6           0        3.876419    1.228324   -0.073404
      3          6           0        4.366037   -0.070071    0.090214
      4          6           0        3.500176   -1.157409    0.098943
      5          6           0        2.125648   -0.955147   -0.058217
      6          6           0        1.625422    0.341656   -0.223491
      7          8           0        0.308837    0.653816   -0.390632
      8          6           0       -0.652709   -0.389897   -0.350094
      9          6           0       -2.037326    0.255037   -0.470190
     10          1           0       -2.011785    0.943661   -1.324627
     11          6           0       -3.078632   -0.836743   -0.744820
     12          8           0       -4.407286   -0.295550   -0.846926
     13          6           0       -5.088323   -0.172187    0.321083
     14          8           0       -4.634828   -0.441245    1.424740
     15          7           0       -6.359008    0.249529    0.086804
     16          8           0       -2.347219    1.035765    0.666013
     17         17           0        6.097489   -0.329163    0.287475
     18          1           0        2.104810    2.428578   -0.354144
     19          1           0        4.559447    2.071118   -0.076708
     20          1           0        3.889473   -2.161891    0.227312
     21          1           0        1.465184   -1.814274   -0.049455
     22          1           0       -0.475425   -1.097708   -1.175768
     23          1           0       -0.584415   -0.938810    0.599991
     24          1           0       -2.891669   -1.313349   -1.710359
     25          1           0       -3.064815   -1.597603    0.042300
     26          1           0       -6.601815    0.611230   -0.823487
     27          1           0       -6.890513    0.560122    0.885525
     28          1           0       -2.885675    0.493821    1.273056
 ---------------------------------------------------------------------

 SCF Done:  E(RHF) =  -1199.05054368     A.U. after   16 cycles

 The electronic state is 1-A.
 Alpha  occ. eigenvalues -- -104.81393 -20.62480 -20.59412 -20.55336 -20.55145
 Alpha  occ. eigenvalues --  -15.60459 -11.43132 -11.31166 -11.30764 -11.29713
 Alpha  occ. eigenvalues --  -11.29431 -11.29414 -11.25435 -11.25235 -11.24417
 Alpha  occ. eigenvalues --  -11.23856 -10.55225  -8.02082  -8.01758  -8.01749
 Alpha  occ. eigenvalues --   -1.47946  -1.41743  -1.37097  -1.35549  -1.23345
 Alpha  occ. eigenvalues --   -1.17985  -1.10952  -1.06160  -1.03063  -0.99509
 Alpha  occ. eigenvalues --   -0.94786  -0.86837  -0.83805  -0.81414  -0.80430
 Alpha  occ. eigenvalues --   -0.76829  -0.73166  -0.72919  -0.70325  -0.68213
 Alpha  occ. eigenvalues --   -0.67899  -0.65856  -0.65005  -0.63393  -0.62429
 Alpha  occ. eigenvalues --   -0.61733  -0.60458  -0.59717  -0.57676  -0.54801
 Alpha  occ. eigenvalues --   -0.54226  -0.53225  -0.53135  -0.52241  -0.50153
 Alpha  occ. eigenvalues --   -0.49661  -0.48095  -0.45746  -0.44738  -0.44387
 Alpha  occ. eigenvalues --   -0.44270  -0.43588  -0.35001  -0.31000
 Alpha virt. eigenvalues --    0.12801   0.14520   0.19663   0.20097   0.21890
 Alpha virt. eigenvalues --    0.22769   0.25665   0.26336   0.27102   0.27270
 Alpha virt. eigenvalues --    0.28619   0.29175   0.31416   0.31571   0.31846

 Mulliken charges:
               1
     1  C   -0.250183
     2  C   -0.165257
     3  C   -0.161388
     4  C   -0.164573
     5  C   -0.285585
     6  C    0.468721
     7  O   -0.705710
     8  C    0.007714
     9  C    0.179806
    10  H    0.192973
    11  C   -0.053514
    12  O   -0.681207
    13  C    1.088614
    14  O   -0.669881
    15  N   -0.946420
    16  O   -0.813889
    17  Cl  -0.013560
    18  H    0.233722
    19  H    0.235326
    20  H    0.233124
    21  H    0.217639
    22  H    0.154566
    23  H    0.170433
    24  H    0.198998
    25  H    0.204752
    26  H    0.413424
    27  H    0.414364
    28  H    0.496992
 Sum of Mulliken charges =   0.00000

 Dipole moment (field-independent basis, Debye):
    X=             -4.7046    Y=             -1.2975    Z=             -2.4628  Tot=              5.4664
 Quadrupole moment (field-independent basis, Debye-Ang):
   XX=            -90.7491   YY=            -95.4664   ZZ=           -104.2943
   XY=             -3.1201   XZ=              6.9877   YZ=              0.1507

 ESP charges:
               1
     1  C   -0.476549
     2  C    0.107603
     3  C   -0.143363
     4  C    0.018063
     5  C   -0.404020
     6  C    0.535668
     7  O   -0.366189
     8  C    0.005881
     9  C    0.304082
    10  H    0.069103
    11  C   -0.046423
    12  O   -0.422735
    13  C    0.983811
    14  O   -0.633371
    15  N   -1.003849
    16  O   -0.673566
    17  Cl  -0.120004
    18  H    0.215201
    19  H    0.119062
    20  H    0.142188
    21  H    0.176689
    22  H    0.031241
    23  H    0.082000
    24  H    0.109350
    25  H    0.092507
    26  H    0.430993
    27  H    0.434873
    28  H    0.431754
 Sum of ESP charges =   0.00000

 Normal termination of Gaussian 09 at Thu Jan 16 21:49:57 2014.
