 Gaussian 09, Revision D.01,
 Gaussian 09:  AM64L-G09RevD.01 24-Apr-2013

 -----------------------------------------
 # hf/gen pop=mk iop(6/33=2,6/41=5,6/42=2)
 -----------------------------------------

 -------
 na resp
 -------
 Symbolic Z-matrix:
 Charge =  0 Multiplicity = 1

                         Standard orientation:
 ---------------------------------------------------------------------
 Center     Atomic      Atomic             Coordinates (Angstroms)
 Number     Number       Type             X           Y           Z
 ---------------------------------------------------------------------
      1          6           0        1.133273    2.149439    0.000002
      2          6           0        0.261444    0.919518   -0.000025
      3          6           0       -1.134449    1.036123    0.000006
      4          6           0       -1.964561   -0.088014   -0.000002
      5          6           0       -1.404259   -1.368330    0.000003
      6          6           0       -0.020327   -1.506047    0.000006
      7          6           0        0.796771   -0.375718   -0.000028
      8         17           0        2.547503   -0.604680    0.000006
      9          8           0       -3.328587    0.003745   -0.000001
     10          1           0        1.786986    2.173600   -0.879451
     11          1           0        0.525264    3.058774    0.000077
     12          1           0        1.786977    2.173492    0.879469
     13          1           0       -1.577221    2.031090   -0.000031
     14          1           0       -2.055631   -2.235956    0.000005
     15          1           0        0.430609   -2.492744    0.000004
     16          1           0       -3.583193    0.939516    0.000059
 ---------------------------------------------------------------------

 SCF Done:  E(RHF) =  -803.489579813     A.U. after   14 cycles

 The electronic state is 1-A.
 Alpha  occ. eigenvalues -- -104.81519 -20.60004 -11.31443 -11.29299 -11.26759
 Alpha  occ. eigenvalues --  -11.25517 -11.24349 -11.23764 -11.23200 -10.55344
 Alpha  occ. eigenvalues --   -8.02199  -8.01881  -8.01872  -1.40970  -1.18463
 Alpha  occ. eigenvalues --   -1.10729  -1.05825  -0.99090  -0.94443  -0.84851
 Alpha  occ. eigenvalues --   -0.80428  -0.73628  -0.68185  -0.65244  -0.60956
 Alpha  occ. eigenvalues --   -0.60036  -0.59151  -0.57955  -0.57891  -0.54920
 Alpha  occ. eigenvalues --   -0.51507  -0.51143  -0.50592  -0.44876  -0.44791
 Alpha  occ. eigenvalues --   -0.34593  -0.31157
 Alpha virt. eigenvalues --    0.12875   0.14258   0.19592   0.21695   0.24800
 Alpha virt. eigenvalues --    0.27592   0.28483   0.31546   0.32608   0.33354
 Alpha virt. eigenvalues --    0.37060   0.40909   0.43004   0.45881   0.48246

 Mulliken charges:
               1
     1  C   -0.526717
     2  C    0.094143
     3  C   -0.325927
     4  C    0.471428
     5  C   -0.252783
     6  C   -0.154396
     7  C   -0.201209
     8  Cl  -0.011633
     9  O   -0.804141
    10  H    0.201347
    11  H    0.177696
    12  H    0.201346
    13  H    0.199031
    14  H    0.229748
    15  H    0.235757
    16  H    0.466309
 Sum of Mulliken charges =   0.00000

 Dipole moment (field-independent basis, Debye):
    X=             -1.4294    Y=              2.0060    Z=              0.0001  Tot=              2.4632
 Quadrupole moment (field-independent basis, Debye-Ang):
   XX=            -62.3388   YY=            -51.4112   ZZ=            -63.1335
   XY=             -3.9694   XZ=             -0.0004   YZ=              0.0001

 ESP charges:
               1
     1  C   -0.394333
     2  C    0.522043
     3  C   -0.722796
     4  C    0.637110
     5  C   -0.457885
     6  C    0.034932
     7  C   -0.248288
     8  Cl  -0.108499
     9  O   -0.658614
    10  H    0.111954
    11  H    0.114361
    12  H    0.111955
    13  H    0.232897
    14  H    0.229614
    15  H    0.145707
    16  H    0.449840
 Sum of ESP charges =   0.00000

 Normal termination of Gaussian 09 at Thu Jan 16 21:47:05 2014.
