 Gaussian 09, Revision D.01,
 Gaussian 09:  AM64L-G09RevD.01 24-Apr-2013

 -----------------------------------------
 # hf/gen pop=mk iop(6/33=2,6/41=5,6/42=2)
 -----------------------------------------

 -------
 na resp
 -------
 Symbolic Z-matrix:
 Charge =  0 Multiplicity = 1

                         Standard orientation:
 ---------------------------------------------------------------------
 Center     Atomic      Atomic             Coordinates (Angstroms)
 Number     Number       Type             X           Y           Z
 ---------------------------------------------------------------------
      1          6           0        1.141294    2.994586    0.348506
      2          6           0        1.687774    1.635568    0.061194
      3          7           0        2.865762    1.415909   -0.522959
      4          6           0        3.001976    0.069627   -0.598709
      5          6           0        1.893267   -0.547144   -0.055251
      6          7           0        1.044632    0.470538    0.376449
      7          6           0       -0.269400    0.354079    1.011472
      8          6           0       -1.395042    0.138484   -0.008146
      9          1           0       -1.122785   -0.701850   -0.659415
     10          6           0       -2.689221   -0.215678    0.725531
     11         17           0       -4.049951   -0.426628   -0.460524
     12          8           0       -1.514412    1.343435   -0.745200
     13          7           0        1.637361   -1.936279    0.051885
     14          8           0        2.523565   -2.698815   -0.339844
     15          8           0        0.549011   -2.311245    0.523707
     16          1           0        1.053612    3.178598    1.427136
     17          1           0        1.833288    3.728938   -0.067299
     18          1           0        0.152944    3.127070   -0.101439
     19          1           0        3.866807   -0.411708   -1.031814
     20          1           0       -0.235775   -0.473430    1.717858
     21          1           0       -0.452702    1.284104    1.554652
     22          1           0       -2.595375   -1.158782    1.266787
     23          1           0       -2.993150    0.583457    1.405078
     24          1           0       -2.181183    1.200967   -1.437166
 ---------------------------------------------------------------------

 SCF Done:  E(RHF) =  -1118.16916562     A.U. after   16 cycles

 The electronic state is 1-A.
 Alpha  occ. eigenvalues -- -104.82474 -20.60888 -20.60681 -20.59023 -15.86771
 Alpha  occ. eigenvalues --  -15.66243 -15.57462 -11.34373 -11.32597 -11.32142
 Alpha  occ. eigenvalues --  -11.31480 -11.30725 -11.29787 -11.24984 -10.56383
 Alpha  occ. eigenvalues --   -8.03225  -8.02916  -8.02898  -1.60082  -1.39783
 Alpha  occ. eigenvalues --   -1.39283  -1.37812  -1.22125  -1.15147  -1.12177
 Alpha  occ. eigenvalues --   -1.05940  -1.02735  -0.95439  -0.92866  -0.85215
 Alpha  occ. eigenvalues --   -0.82890  -0.79637  -0.76899  -0.74225  -0.72613
 Alpha  occ. eigenvalues --   -0.71609  -0.69139  -0.67986  -0.64836  -0.63990
 Alpha  occ. eigenvalues --   -0.61515  -0.59876  -0.59122  -0.58712  -0.57127
 Alpha  occ. eigenvalues --   -0.56781  -0.55297  -0.51965  -0.50387  -0.49512
 Alpha  occ. eigenvalues --   -0.48616  -0.45943  -0.45656  -0.45489  -0.45055
 Alpha  occ. eigenvalues --   -0.41645  -0.34903
 Alpha virt. eigenvalues --    0.04882   0.16435   0.17485   0.21207   0.22137
 Alpha virt. eigenvalues --    0.23410   0.25006   0.25921   0.27302   0.28150
 Alpha virt. eigenvalues --    0.29698   0.30444   0.31227   0.33993   0.34992

 Mulliken charges:
               1
     1  C   -0.592612
     2  C    0.609044
     3  N   -0.569461
     4  C    0.052381
     5  C    0.495808
     6  N   -0.733142
     7  C   -0.128129
     8  C    0.185399
     9  H    0.211269
    10  C   -0.424241
    11  Cl  -0.106567
    12  O   -0.794514
    13  N    0.471984
    14  O   -0.483988
    15  O   -0.535414
    16  H    0.193204
    17  H    0.230299
    18  H    0.242655
    19  H    0.267191
    20  H    0.242514
    21  H    0.214122
    22  H    0.241826
    23  H    0.229334
    24  H    0.481034
 Sum of Mulliken charges =   0.00000

 Dipole moment (field-independent basis, Debye):
    X=             -1.7389    Y=              3.4900    Z=              2.0439  Tot=              4.4024
 Quadrupole moment (field-independent basis, Debye-Ang):
   XX=           -100.8540   YY=            -99.9478   ZZ=            -83.5673
   XY=              0.7816   XZ=             -0.5339   YZ=              2.7642

 ESP charges:
               1
     1  C   -0.432906
     2  C    0.549757
     3  N   -0.619306
     4  C    0.179034
     5  C   -0.287383
     6  N    0.088575
     7  C   -0.529766
     8  C    0.511818
     9  H    0.045495
    10  C   -0.442965
    11  Cl  -0.156407
    12  O   -0.662942
    13  N    0.826555
    14  O   -0.469173
    15  O   -0.479911
    16  H    0.122159
    17  H    0.146772
    18  H    0.161833
    19  H    0.166445
    20  H    0.222860
    21  H    0.200716
    22  H    0.224607
    23  H    0.220484
    24  H    0.413649
 Sum of ESP charges =   0.00000

 Normal termination of Gaussian 09 at Thu Jan 16 21:49:32 2014.
