 Gaussian 09, Revision D.01,
 Gaussian 09:  AM64L-G09RevD.01 24-Apr-2013

 ------------------------------------------------------------------
 # hf/gen pseudo=read pop=(mk, readradii) iop(6/33=2,6/41=5,6/42=2)
 ------------------------------------------------------------------

 -------
 na resp
 -------
 Symbolic Z-matrix:
 Charge =  0 Multiplicity = 1

                         Standard orientation:
 ---------------------------------------------------------------------
 Center     Atomic      Atomic             Coordinates (Angstroms)
 Number     Number       Type             X           Y           Z
 ---------------------------------------------------------------------
      1          6           0       -4.505294   -0.059445    0.000364
      2          8           0       -3.267441    0.668493    0.000120
      3          6           0       -2.148668   -0.058902    0.000085
      4          6           0       -0.864954    0.612567   -0.000173
      5          6           0        0.139622   -0.331980    0.000133
      6         16           0       -0.549926   -1.912709   -0.000510
      7          7           0       -2.140837   -1.369974    0.000226
      8         53           0        2.207751    0.002629    0.000126
      9          6           0       -0.707244    2.023647   -0.000345
     10          7           0       -0.588936    3.180853   -0.000389
     11          1           0       -4.579848   -0.688795   -0.891241
     12          1           0       -4.579679   -0.688473    0.892209
     13          1           0       -5.285276    0.701856    0.000301
 ---------------------------------------------------------------------

 SCF Done:  E(RHF) =  -783.458736465     A.U. after   16 cycles

 The electronic state is 1-A.
 Alpha  occ. eigenvalues --  -92.03023 -20.62634 -15.61026 -15.59553 -11.38486
 Alpha  occ. eigenvalues --  -11.37085 -11.31326 -11.29841 -11.29587  -9.04090
 Alpha  occ. eigenvalues --   -6.72271  -6.72129  -6.71943  -1.45824  -1.29530
 Alpha  occ. eigenvalues --   -1.22623  -1.12372  -1.05136  -0.97015  -0.93742
 Alpha  occ. eigenvalues --   -0.84861  -0.80188  -0.75189  -0.68650  -0.68461
 Alpha  occ. eigenvalues --   -0.63226  -0.59871  -0.57036  -0.56619  -0.53664
 Alpha  occ. eigenvalues --   -0.52275  -0.51783  -0.50356  -0.49210  -0.46286
 Alpha  occ. eigenvalues --   -0.44102  -0.40574  -0.37139  -0.36308
 Alpha virt. eigenvalues --    0.05822   0.06818   0.13656   0.16577   0.19785
 Alpha virt. eigenvalues --    0.21454   0.25687   0.29931   0.30033   0.30587
 Alpha virt. eigenvalues --    0.33489   0.36018   0.39998   0.41646   0.44086

 Mulliken charges:
               1
     1  C   -0.182083
     2  O   -0.670420
     3  C    0.728652
     4  C   -0.010640
     5  C   -0.581814
     6  S    0.566525
     7  N   -0.681050
     8  I    0.364241
     9  C    0.258205
    10  N   -0.379300
    11  H    0.193714
    12  H    0.193713
    13  H    0.200258
 Sum of Mulliken charges =   0.00000

 Dipole moment (field-independent basis, Debye):
    X=             -0.2817    Y=             -3.3338    Z=             -0.0002  Tot=              3.3456
 Quadrupole moment (field-independent basis, Debye-Ang):
   XX=            -60.8318   YY=            -94.7277   ZZ=            -79.0712
   XY=              1.2392   XZ=             -0.0009   YZ=              0.0040

 ESP charges:
               1
     1  C   -0.057274
     2  O   -0.399712
     3  C    0.633195
     4  C    0.185178
     5  C   -0.469055
     6  S    0.250223
     7  N   -0.474299
     8  I    0.208449
     9  C    0.220845
    10  N   -0.396635
    11  H    0.083923
    12  H    0.083967
    13  H    0.131196
 Sum of ESP charges =   0.00000

 Normal termination of Gaussian 09 at Fri Jan 17 11:54:42 2014.
