 Gaussian 09, Revision D.01,
 Gaussian 09:  AM64L-G09RevD.01 24-Apr-2013

 ------------------------------------------------------------------
 # hf/gen pseudo=read pop=(mk, readradii) iop(6/33=2,6/41=5,6/42=2)
 ------------------------------------------------------------------

 -------
 na resp
 -------
 Symbolic Z-matrix:
 Charge =  0 Multiplicity = 1

                         Standard orientation:
 ---------------------------------------------------------------------
 Center     Atomic      Atomic             Coordinates (Angstroms)
 Number     Number       Type             X           Y           Z
 ---------------------------------------------------------------------
      1          6           0       -3.817471    2.129330    0.000591
      2          6           0       -2.882560    0.945571    0.000149
      3          6           0       -3.347784   -0.337737    0.000064
      4          6           0       -2.409794   -1.467509   -0.000484
      5          8           0       -2.709830   -2.639947   -0.001379
      6          8           0       -1.049363   -1.169798    0.000209
      7          6           0       -0.569374    0.097594    0.000047
      8          6           0       -1.449965    1.201091   -0.000049
      9          6           0       -0.879780    2.484113   -0.000168
     10          6           0        0.494496    2.670924   -0.000245
     11          6           0        1.361367    1.562978   -0.000128
     12          6           0        0.817429    0.268124    0.000040
     13         53           0        2.102598   -1.421413    0.000218
     14          8           0        2.710114    1.663809   -0.000119
     15          6           0        3.305993    2.954128   -0.000497
     16          6           0       -4.810955   -0.715790    0.000324
     17          1           0       -3.649741    2.759482    0.882903
     18          1           0       -3.649777    2.760089   -0.881296
     19          1           0       -4.864015    1.823835    0.000501
     20          1           0       -1.523458    3.356753   -0.000255
     21          1           0        0.895206    3.677194   -0.000340
     22          1           0        3.030054    3.524210    0.895467
     23          1           0        4.382555    2.778224   -0.000611
     24          1           0        3.029785    3.523803   -0.896635
     25          1           0       -5.329985   -0.327903    0.885035
     26          1           0       -4.904959   -1.802424    0.000241
     27          1           0       -5.330349   -0.327807   -0.884129
 ---------------------------------------------------------------------

 SCF Done:  E(RHF) =  -696.554160543     A.U. after   16 cycles

 The electronic state is 1-A.
 Alpha  occ. eigenvalues --  -20.62987 -20.61088 -20.54338 -11.39086 -11.34273
 Alpha  occ. eigenvalues --  -11.34013 -11.30077 -11.29040 -11.28894 -11.27334
 Alpha  occ. eigenvalues --  -11.26198 -11.25737 -11.25262 -11.24850 -11.22547
 Alpha  occ. eigenvalues --   -1.47390  -1.43440  -1.36819  -1.18287  -1.13589
 Alpha  occ. eigenvalues --   -1.05478  -1.04361  -1.00582  -0.97314  -0.93725
 Alpha  occ. eigenvalues --   -0.89866  -0.86551  -0.84190  -0.80715  -0.76798
 Alpha  occ. eigenvalues --   -0.71979  -0.70642  -0.70349  -0.67373  -0.65824
 Alpha  occ. eigenvalues --   -0.64951  -0.62332  -0.60280  -0.60243  -0.59420
 Alpha  occ. eigenvalues --   -0.58902  -0.58504  -0.57242  -0.55368  -0.54909
 Alpha  occ. eigenvalues --   -0.52933  -0.52162  -0.51261  -0.50926  -0.47757
 Alpha  occ. eigenvalues --   -0.46414  -0.44321  -0.40999  -0.38516  -0.35334
 Alpha  occ. eigenvalues --   -0.32335  -0.30347
 Alpha virt. eigenvalues --    0.06889   0.11723   0.12474   0.15597   0.21916
 Alpha virt. eigenvalues --    0.22892   0.25665   0.25960   0.27423   0.29140
 Alpha virt. eigenvalues --    0.29913   0.30679   0.30700   0.31356   0.31545

 Mulliken charges:
               1
     1  C   -0.550499
     2  C    0.144241
     3  C   -0.198959
     4  C    0.866991
     5  O   -0.574039
     6  O   -0.726127
     7  C    0.583316
     8  C   -0.113289
     9  C   -0.176415
    10  C   -0.309990
    11  C    0.578243
    12  C   -0.604707
    13  I    0.285454
    14  O   -0.682325
    15  C   -0.189443
    16  C   -0.540313
    17  H    0.194877
    18  H    0.194850
    19  H    0.210770
    20  H    0.229925
    21  H    0.222678
    22  H    0.172674
    23  H    0.208787
    24  H    0.172676
    25  H    0.180293
    26  H    0.240030
    27  H    0.180301
 Sum of Mulliken charges =   0.00000

 Dipole moment (field-independent basis, Debye):
    X=             -0.4256    Y=              8.1312    Z=              0.0014  Tot=              8.1423
 Quadrupole moment (field-independent basis, Debye-Ang):
   XX=            -93.9174   YY=           -102.3025   ZZ=           -109.7962
   XY=             -5.4519   XZ=             -0.0094   YZ=             -0.0085

 ESP charges:
               1
     1  C   -0.307629
     2  C    0.388448
     3  C   -0.337405
     4  C    0.889863
     5  O   -0.554180
     6  O   -0.590385
     7  C    1.026095
     8  C   -0.665548
     9  C    0.245116
    10  C   -0.725425
    11  C    0.975955
    12  C   -0.956457
    13  I    0.099342
    14  O   -0.375769
    15  C   -0.110903
    16  C   -0.276473
    17  H    0.099077
    18  H    0.099039
    19  H    0.106769
    20  H    0.115848
    21  H    0.236954
    22  H    0.087478
    23  H    0.125685
    24  H    0.087478
    25  H    0.101192
    26  H    0.114626
    27  H    0.101210
 Sum of ESP charges =   0.00000

 Normal termination of Gaussian 09 at Fri Jan 17 11:58:03 2014.
