 Gaussian 09, Revision D.01,
 Gaussian 09:  AM64L-G09RevD.01 24-Apr-2013

 -----------------------------------------
 # hf/gen pop=mk iop(6/33=2,6/41=5,6/42=2)
 -----------------------------------------

 -------
 na resp
 -------
 Symbolic Z-matrix:
 Charge =  0 Multiplicity = 1

                         Standard orientation:
 ---------------------------------------------------------------------
 Center     Atomic      Atomic             Coordinates (Angstroms)
 Number     Number       Type             X           Y           Z
 ---------------------------------------------------------------------
      1          6           0        0.588091   -0.646483    1.255735
      2          6           0        1.955013   -0.379628    1.176292
      3          6           0        2.542464   -0.216304   -0.076323
      4          6           0        1.789719   -0.321600   -1.245547
      5          6           0        0.426197   -0.593475   -1.152164
      6          6           0       -0.187886   -0.750204    0.096811
      7          6           0       -1.642317   -1.085069    0.172805
      8          1           0       -1.941554   -2.036599   -0.270578
      9          6           0       -2.744001   -0.071526    0.209648
     10          8           0       -2.345213   -0.800803    1.379617
     11          6           0       -2.413243    1.411247    0.218013
     12          8           0       -2.661769    2.133225   -0.748435
     13          7           0       -1.848714    1.855401    1.360748
     14          6           0       -4.074042   -0.554949   -0.393105
     15          8           0       -4.451200   -1.698045   -0.185279
     16          7           0       -4.727241    0.351447   -1.157513
     17         35           0        4.413290    0.154628   -0.194823
     18          1           0        0.121161   -0.789899    2.225655
     19          1           0        2.557214   -0.304104    2.075167
     20          1           0        2.262437   -0.191246   -2.212791
     21          1           0       -0.164160   -0.675727   -2.061191
     22          1           0       -1.650360    1.213672    2.113851
     23          1           0       -1.556958    2.820585    1.418648
     24          1           0       -4.280004    1.234208   -1.386828
     25          1           0       -5.555749    0.042129   -1.646003
 ---------------------------------------------------------------------

 SCF Done:  E(RHF) =  -3286.99038671     A.U. after   16 cycles

 The electronic state is 1-A.
 Alpha  occ. eigenvalues -- -489.85275 -64.39657 -58.56339 -58.56163 -58.56156
 Alpha  occ. eigenvalues --  -20.61849 -20.55400 -20.53335 -15.60703 -15.58514
 Alpha  occ. eigenvalues --  -11.39057 -11.37271 -11.33548 -11.33338 -11.31550
 Alpha  occ. eigenvalues --  -11.27494 -11.26761 -11.26719 -11.26644 -11.26560
 Alpha  occ. eigenvalues --   -9.67419  -7.48987  -7.48100  -7.48097  -3.23306
 Alpha  occ. eigenvalues --   -3.22878  -3.22877  -3.21850  -3.21849  -1.46340
 Alpha  occ. eigenvalues --   -1.40301  -1.38269  -1.23492  -1.21557  -1.19009
 Alpha  occ. eigenvalues --   -1.09035  -1.04621  -1.01005  -0.99203  -0.91374
 Alpha  occ. eigenvalues --   -0.86414  -0.85968  -0.81693  -0.79116  -0.76501
 Alpha  occ. eigenvalues --   -0.74126  -0.71192  -0.69268  -0.68788  -0.66510
 Alpha  occ. eigenvalues --   -0.65682  -0.62951  -0.62347  -0.61615  -0.60413
 Alpha  occ. eigenvalues --   -0.58957  -0.57741  -0.57312  -0.54327  -0.52817
 Alpha  occ. eigenvalues --   -0.51574  -0.49266  -0.47794  -0.45437  -0.44129
 Alpha  occ. eigenvalues --   -0.43307  -0.42659  -0.42241  -0.41081  -0.36371
 Alpha  occ. eigenvalues --   -0.34028
 Alpha virt. eigenvalues --    0.09851   0.11111   0.14650   0.15561   0.18753
 Alpha virt. eigenvalues --    0.21855   0.24410   0.25040   0.25789   0.27537
 Alpha virt. eigenvalues --    0.28234   0.28804   0.31350   0.32277   0.33126

 Mulliken charges:
               1
     1  C   -0.209015
     2  C   -0.184255
     3  C    0.007297
     4  C   -0.183911
     5  C   -0.196938
     6  C   -0.037556
     7  C    0.121829
     8  H    0.262165
     9  C    0.066405
    10  O   -0.619730
    11  C    0.815685
    12  O   -0.665000
    13  N   -0.941313
    14  C    0.826961
    15  O   -0.618723
    16  N   -0.992232
    17  Br  -0.130545
    18  H    0.237067
    19  H    0.239647
    20  H    0.242213
    21  H    0.230864
    22  H    0.437300
    23  H    0.416923
    24  H    0.467578
    25  H    0.407286
 Sum of Mulliken charges =   0.00000

 Dipole moment (field-independent basis, Debye):
    X=              1.3684    Y=              1.8908    Z=              0.2495  Tot=              2.3473
 Quadrupole moment (field-independent basis, Debye-Ang):
   XX=           -118.8140   YY=           -111.9418   ZZ=            -94.0051
   XY=            -10.0534   XZ=              6.7944   YZ=              7.7163

 ESP charges:
               1
     1  C   -0.231781
     2  C   -0.013433
     3  C   -0.233624
     4  C    0.151114
     5  C   -0.417364
     6  C    0.314617
     7  C   -0.095019
     8  H    0.178471
     9  C   -0.120378
    10  O   -0.304286
    11  C    0.908930
    12  O   -0.673131
    13  N   -0.990399
    14  C    0.893562
    15  O   -0.622466
    16  N   -1.096247
    17  Br  -0.049827
    18  H    0.163345
    19  H    0.141850
    20  H    0.107877
    21  H    0.189752
    22  H    0.420340
    23  H    0.442853
    24  H    0.476859
    25  H    0.458385
 Sum of ESP charges =   0.00000

 Normal termination of Gaussian 09 at Thu Jan 16 22:40:54 2014.
