 Gaussian 09, Revision D.01,
 Gaussian 09:  AM64L-G09RevD.01 24-Apr-2013

 ------------------------------------------------------------------
 # hf/gen pseudo=read pop=(mk, readradii) iop(6/33=2,6/41=5,6/42=2)
 ------------------------------------------------------------------

 -------
 na resp
 -------
 Symbolic Z-matrix:
 Charge =  0 Multiplicity = 1

                         Standard orientation:
 ---------------------------------------------------------------------
 Center     Atomic      Atomic             Coordinates (Angstroms)
 Number     Number       Type             X           Y           Z
 ---------------------------------------------------------------------
      1          6           0       -6.897994   -1.165374    0.000498
      2          6           0       -7.282259    0.175990    0.000623
      3          6           0       -6.286168    1.155268    0.000346
      4          7           0       -4.980510    0.870680   -0.000014
      5          6           0       -4.620432   -0.423916   -0.000138
      6          6           0       -5.539864   -1.475692    0.000107
      7          6           0       -3.145410   -0.751133   -0.000586
      8          8           0       -2.732688   -1.898546   -0.000492
      9          7           0       -2.358940    0.379802   -0.000546
     10          7           0       -1.008322    0.305721   -0.000647
     11          6           0       -0.377038    1.428155   -0.000507
     12          6           0        1.060871    1.509375   -0.000202
     13          6           0        1.900568    2.597284    0.000386
     14          6           0        3.234148    2.090807   -0.000085
     15          6           0        3.104041    0.731272    0.000109
     16          8           0        1.803314    0.355493   -0.000066
     17         53           0        4.540505   -0.791775    0.000146
     18          1           0       -7.644165   -1.955059    0.000703
     19          1           0       -8.329306    0.463115    0.000925
     20          1           0       -6.547875    2.211664    0.000437
     21          1           0       -5.170682   -2.494866   -0.000015
     22          1           0       -2.848507    1.276132   -0.000426
     23          1           0       -0.895659    2.395873   -0.000232
     24          1           0        1.598323    3.635735    0.000649
     25          1           0        4.157691    2.650266   -0.000169
 ---------------------------------------------------------------------

 SCF Done:  E(RHF) =  -745.360330221     A.U. after   16 cycles

 The electronic state is 1-A.
 Alpha  occ. eigenvalues --  -20.64200 -20.53218 -15.62585 -15.62330 -15.59662
 Alpha  occ. eigenvalues --  -11.36275 -11.34288 -11.30953 -11.29803 -11.29490
 Alpha  occ. eigenvalues --  -11.29350 -11.27435 -11.26284 -11.25752 -11.25088
 Alpha  occ. eigenvalues --  -11.24815  -1.47446  -1.39405  -1.32951  -1.28075
 Alpha  occ. eigenvalues --   -1.14773  -1.10348  -1.10111  -1.06037  -1.03148
 Alpha  occ. eigenvalues --   -0.92968  -0.89437  -0.87581  -0.85114  -0.81844
 Alpha  occ. eigenvalues --   -0.79894  -0.77919  -0.75758  -0.71304  -0.69481
 Alpha  occ. eigenvalues --   -0.67134  -0.66305  -0.65258  -0.63079  -0.61391
 Alpha  occ. eigenvalues --   -0.61195  -0.60339  -0.59006  -0.58312  -0.56980
 Alpha  occ. eigenvalues --   -0.55685  -0.54404  -0.50157  -0.49568  -0.46860
 Alpha  occ. eigenvalues --   -0.44654  -0.41976  -0.41680  -0.41386  -0.39832
 Alpha  occ. eigenvalues --   -0.37885  -0.36688  -0.35863  -0.28814
 Alpha virt. eigenvalues --    0.06911   0.09988   0.11009   0.11599   0.19848
 Alpha virt. eigenvalues --    0.22781   0.23311   0.24416   0.26705   0.27462
 Alpha virt. eigenvalues --    0.27962   0.28764   0.30340   0.31404   0.32269

 Mulliken charges:
               1
     1  C   -0.150590
     2  C   -0.255657
     3  C    0.073610
     4  N   -0.611141
     5  C    0.190365
     6  C   -0.215038
     7  C    0.843572
     8  O   -0.600026
     9  N   -0.703026
    10  N   -0.181101
    11  C    0.011467
    12  C    0.373711
    13  C   -0.258354
    14  C   -0.245356
    15  C   -0.028520
    16  O   -0.574884
    17  I    0.292877
    18  H    0.231533
    19  H    0.225461
    20  H    0.216378
    21  H    0.269681
    22  H    0.432231
    23  H    0.199306
    24  H    0.229483
    25  H    0.234019
 Sum of Mulliken charges =   0.00000

 Dipole moment (field-independent basis, Debye):
    X=             -3.9621    Y=              5.0194    Z=              0.0011  Tot=              6.3947
 Quadrupole moment (field-independent basis, Debye-Ang):
   XX=            -60.4255   YY=           -101.6606   ZZ=           -115.7829
   XY=             -0.3570   XZ=             -0.0059   YZ=             -0.0011

 ESP charges:
               1
     1  C    0.088441
     2  C   -0.370937
     3  C    0.309140
     4  N   -0.570433
     5  C    0.339651
     6  C   -0.319435
     7  C    0.483395
     8  O   -0.539854
     9  N   -0.067114
    10  N   -0.303781
    11  C   -0.040263
    12  C    0.451603
    13  C   -0.569289
    14  C    0.247865
    15  C   -0.336663
    16  O   -0.119731
    17  I    0.097140
    18  H    0.124699
    19  H    0.179002
    20  H    0.076670
    21  H    0.185218
    22  H    0.196269
    23  H    0.134771
    24  H    0.235074
    25  H    0.088563
 Sum of ESP charges =   0.00000

 Normal termination of Gaussian 09 at Fri Jan 17 11:57:19 2014.
