 Gaussian 09, Revision D.01,
 Gaussian 09:  AM64L-G09RevD.01 24-Apr-2013

 ------------------------------------------------------------------
 # hf/gen pseudo=read pop=(mk, readradii) iop(6/33=2,6/41=5,6/42=2)
 ------------------------------------------------------------------

 -------
 na resp
 -------
 Symbolic Z-matrix:
 Charge =  0 Multiplicity = 1

                         Standard orientation:
 ---------------------------------------------------------------------
 Center     Atomic      Atomic             Coordinates (Angstroms)
 Number     Number       Type             X           Y           Z
 ---------------------------------------------------------------------
      1          6           0        6.119736   -0.272286   -0.573359
      2          6           0        5.504067   -1.479247   -0.239441
      3          7           0        4.211702   -1.564807    0.074611
      4          6           0        3.526341   -0.404900    0.052320
      5          7           0        4.001921    0.807817   -0.239456
      6          6           0        5.300547    0.854507   -0.551124
      7          7           0        2.189325   -0.562010    0.401503
      8          6           0        1.157366    0.353773    0.403462
      9          7           0        1.140672    1.505843   -0.132156
     10          6           0       -0.088034    2.215389    0.169824
     11          6           0       -1.237318    1.218122    0.542061
     12          1           0       -1.887217    1.649290    1.306236
     13         16           0       -0.334323   -0.201666    1.287134
     14          6           0       -2.048057    0.841254   -0.690563
     15         53           0       -3.766424   -0.474486   -0.261616
     16          1           0        7.171252   -0.215205   -0.830759
     17          1           0        6.063449   -2.413415   -0.222294
     18          1           0        5.694700    1.841221   -0.790059
     19          1           0        1.961313   -1.517404    0.643915
     20          1           0       -0.381407    2.833627   -0.687156
     21          1           0        0.086310    2.896742    1.014754
     22          1           0       -2.498529    1.726269   -1.143523
     23          1           0       -1.453443    0.305716   -1.430198
 ---------------------------------------------------------------------

 SCF Done:  E(RHF) =  -934.639335968     A.U. after   16 cycles

 The electronic state is 1-A.
 Alpha  occ. eigenvalues --  -91.95708 -15.61434 -15.57815 -15.57202 -15.55297
 Alpha  occ. eigenvalues --  -11.36847 -11.35705 -11.30584 -11.30354 -11.30062
 Alpha  occ. eigenvalues --  -11.29308 -11.27383 -11.24301  -8.97276  -6.65451
 Alpha  occ. eigenvalues --   -6.65340  -6.65127  -1.34812  -1.28538  -1.21867
 Alpha  occ. eigenvalues --   -1.20058  -1.09703  -1.06730  -0.99426  -0.96385
 Alpha  occ. eigenvalues --   -0.90396  -0.89113  -0.84751  -0.80251  -0.79225
 Alpha  occ. eigenvalues --   -0.74367  -0.69417  -0.67221  -0.66103  -0.65587
 Alpha  occ. eigenvalues --   -0.62787  -0.61684  -0.60663  -0.59448  -0.58696
 Alpha  occ. eigenvalues --   -0.56315  -0.53121  -0.52398  -0.49415  -0.47656
 Alpha  occ. eigenvalues --   -0.43730  -0.42876  -0.42412  -0.41837  -0.39734
 Alpha  occ. eigenvalues --   -0.36327  -0.35884  -0.35227  -0.33081
 Alpha virt. eigenvalues --    0.09914   0.10449   0.12075   0.15092   0.20402
 Alpha virt. eigenvalues --    0.22908   0.24037   0.24504   0.25522   0.26703
 Alpha virt. eigenvalues --    0.28763   0.29054   0.29672   0.30979   0.33315

 Mulliken charges:
               1
     1  C   -0.340077
     2  C    0.124056
     3  N   -0.610438
     4  C    0.851784
     5  N   -0.547604
     6  C    0.120145
     7  N   -0.920429
     8  C    0.430113
     9  N   -0.490544
    10  C   -0.129166
    11  C   -0.345054
    12  H    0.234441
    13  S    0.182092
    14  C   -0.618032
    15  I    0.058440
    16  H    0.222527
    17  H    0.225651
    18  H    0.226125
    19  H    0.431681
    20  H    0.188585
    21  H    0.198323
    22  H    0.248017
    23  H    0.259364
 Sum of Mulliken charges =   0.00000

 Dipole moment (field-independent basis, Debye):
    X=              2.8837    Y=              0.9880    Z=             -0.4882  Tot=              3.0871
 Quadrupole moment (field-independent basis, Debye-Ang):
   XX=            -85.3095   YY=           -100.7055   ZZ=           -105.6744
   XY=             -8.5254   XZ=             -3.4754   YZ=              0.0999

 ESP charges:
               1
     1  C   -0.776237
     2  C    0.564418
     3  N   -0.899446
     4  C    1.332531
     5  N   -0.834371
     6  C    0.543358
     7  N   -1.009813
     8  C    0.755358
     9  N   -0.536157
    10  C    0.018370
    11  C   -0.027018
    12  H    0.192240
    13  S   -0.227856
    14  C   -0.662797
    15  I   -0.065490
    16  H    0.244015
    17  H    0.075151
    18  H    0.078166
    19  H    0.469303
    20  H    0.122061
    21  H    0.068371
    22  H    0.278317
    23  H    0.297528
 Sum of ESP charges =   0.00000

 Normal termination of Gaussian 09 at Fri Jan 17 11:56:47 2014.
