 Gaussian 09, Revision D.01,
 Gaussian 09:  AM64L-G09RevD.01 24-Apr-2013

 ------------------------------------------------------------------
 # hf/gen pseudo=read pop=(mk, readradii) iop(6/33=2,6/41=5,6/42=2)
 ------------------------------------------------------------------

 -------
 na resp
 -------
 Symbolic Z-matrix:
 Charge =  0 Multiplicity = 1

                         Standard orientation:
 ---------------------------------------------------------------------
 Center     Atomic      Atomic             Coordinates (Angstroms)
 Number     Number       Type             X           Y           Z
 ---------------------------------------------------------------------
      1          6           0       -0.647041    3.397847    0.040556
      2          6           0       -1.962082    2.996722   -0.179779
      3          6           0       -2.266441    1.632679   -0.203777
      4          6           0       -1.263080    0.689799   -0.007294
      5          6           0        0.070438    1.079740    0.220740
      6          6           0        0.361852    2.453701    0.236855
      7          8           0        0.983137    0.098190    0.418838
      8          6           0        2.361723    0.427691    0.680632
      9          6           0        3.104560    0.838602   -0.620407
     10          6           0        3.915351   -0.410877   -1.069554
     11          6           0        3.386004   -1.572148   -0.203509
     12          6           0        3.026779   -0.881934    1.121069
     13         53           0       -1.765711   -1.389890   -0.048090
     14          1           0       -0.392431    4.454024    0.058487
     15          1           0       -2.748684    3.729007   -0.334722
     16          1           0       -3.286043    1.303709   -0.374783
     17          1           0        1.379703    2.788828    0.397436
     18          1           0        2.394777    1.196043    1.461656
     19          1           0        2.377603    1.146457   -1.377425
     20          1           0        3.760259    1.697807   -0.439304
     21          1           0        4.982413   -0.255447   -0.868205
     22          1           0        3.817772   -0.605756   -2.142125
     23          1           0        4.114018   -2.381299   -0.083660
     24          1           0        2.479967   -2.000175   -0.647746
     25          1           0        3.939608   -0.640681    1.682019
     26          1           0        2.370244   -1.464825    1.773232
 ---------------------------------------------------------------------

 SCF Done:  E(RHF) =  -510.122405834     A.U. after   14 cycles

 The electronic state is 1-A.
 Alpha  occ. eigenvalues --  -20.58813 -11.31801 -11.29236 -11.28293 -11.25191
 Alpha  occ. eigenvalues --  -11.24803 -11.23937 -11.23507 -11.22529 -11.22139
 Alpha  occ. eigenvalues --  -11.22126 -11.21668  -1.41174  -1.15784  -1.11937
 Alpha  occ. eigenvalues --   -1.03112  -1.01749  -0.96995  -0.95973  -0.87906
 Alpha  occ. eigenvalues --   -0.84441  -0.80254  -0.78590  -0.77554  -0.71977
 Alpha  occ. eigenvalues --   -0.67230  -0.66049  -0.65757  -0.62638  -0.61466
 Alpha  occ. eigenvalues --   -0.60700  -0.57071  -0.56553  -0.53860  -0.52641
 Alpha  occ. eigenvalues --   -0.50809  -0.49752  -0.48325  -0.47826  -0.46935
 Alpha  occ. eigenvalues --   -0.46649  -0.44998  -0.44466  -0.38922  -0.35409
 Alpha  occ. eigenvalues --   -0.32967  -0.30646
 Alpha virt. eigenvalues --    0.12054   0.12783   0.14888   0.21679   0.23998
 Alpha virt. eigenvalues --    0.24815   0.27660   0.29118   0.29928   0.30812
 Alpha virt. eigenvalues --    0.31921   0.32322   0.32706   0.33239   0.33844

 Mulliken charges:
               1
     1  C   -0.175879
     2  C   -0.228972
     3  C   -0.127372
     4  C   -0.489326
     5  C    0.572842
     6  C   -0.294418
     7  O   -0.724258
     8  C    0.146826
     9  C   -0.356872
    10  C   -0.337379
    11  C   -0.334842
    12  C   -0.334109
    13  I    0.201091
    14  H    0.212472
    15  H    0.208758
    16  H    0.225503
    17  H    0.217807
    18  H    0.180200
    19  H    0.197921
    20  H    0.169617
    21  H    0.165274
    22  H    0.178372
    23  H    0.171087
    24  H    0.192266
    25  H    0.164409
    26  H    0.198984
 Sum of Mulliken charges =   0.00000

 Dipole moment (field-independent basis, Debye):
    X=              1.9317    Y=              2.2522    Z=              0.1070  Tot=              2.9691
 Quadrupole moment (field-independent basis, Debye-Ang):
   XX=            -83.2609   YY=            -84.8538   ZZ=            -95.6329
   XY=             -1.0691   XZ=              2.6146   YZ=              0.2044

 ESP charges:
               1
     1  C    0.066195
     2  C   -0.392447
     3  C    0.244436
     4  C   -0.578516
     5  C    0.796273
     6  C   -0.544346
     7  O   -0.453326
     8  C    0.302096
     9  C    0.065349
    10  C   -0.191092
    11  C    0.105730
    12  C   -0.183085
    13  I   -0.000822
    14  H    0.129043
    15  H    0.176302
    16  H    0.090566
    17  H    0.192622
    18  H   -0.014879
    19  H    0.007082
    20  H   -0.019859
    21  H    0.048943
    22  H    0.053623
    23  H   -0.001256
    24  H   -0.003424
    25  H    0.052932
    26  H    0.051859
 Sum of ESP charges =   0.00000

 Normal termination of Gaussian 09 at Fri Jan 17 11:55:07 2014.
