 Gaussian 09, Revision D.01,
 Gaussian 09:  AM64L-G09RevD.01 24-Apr-2013

 -----------------------------------------
 # hf/gen pop=mk iop(6/33=2,6/41=5,6/42=2)
 -----------------------------------------

 -------
 na resp
 -------
 Symbolic Z-matrix:
 Charge =  0 Multiplicity = 1

                         Standard orientation:
 ---------------------------------------------------------------------
 Center     Atomic      Atomic             Coordinates (Angstroms)
 Number     Number       Type             X           Y           Z
 ---------------------------------------------------------------------
      1          6           0       -3.468311   -1.826704    0.354455
      2          7           0       -2.417139   -0.830525    0.150134
      3          6           0       -1.113343   -1.220264   -0.034922
      4          6           0       -0.100278   -0.303468   -0.235109
      5          6           0       -0.311214    1.113264   -0.260598
      6          8           0        0.553600    1.974426   -0.416385
      7          7           0       -1.677114    1.430764   -0.071812
      8          6           0       -2.740564    0.527454    0.129858
      9          8           0       -3.883841    0.930832    0.280889
     10          6           0       -2.061409    2.847001   -0.077670
     11          7           0        1.051737   -1.066550   -0.389026
     12          6           0        0.650950   -2.360121   -0.265311
     13          7           0       -0.652141   -2.500639   -0.051832
     14          6           0        2.411411   -0.585696   -0.628119
     15          6           0        2.996011    0.076740    0.620054
     16         17           0        4.727672    0.508502    0.319493
     17          1           0       -4.403385   -1.288838    0.497425
     18          1           0       -3.537696   -2.482925   -0.517741
     19          1           0       -3.239360   -2.434290    1.234149
     20          1           0       -2.780054    3.034625   -0.878793
     21          1           0       -2.529087    3.109800    0.873923
     22          1           0       -1.154753    3.428298   -0.232669
     23          1           0        1.352347   -3.180088   -0.349010
     24          1           0        3.015589   -1.447312   -0.923388
     25          1           0        2.394774    0.130633   -1.452117
     26          1           0        2.463206    1.000567    0.844532
     27          1           0        2.973013   -0.597666    1.478191
 ---------------------------------------------------------------------

 SCF Done:  E(RHF) =  -1174.26746633     A.U. after   16 cycles

 The electronic state is 1-A.
 Alpha  occ. eigenvalues -- -104.81556 -20.55008 -20.54322 -15.66363 -15.63465
 Alpha  occ. eigenvalues --  -15.63025 -15.58667 -11.41404 -11.39132 -11.34753
 Alpha  occ. eigenvalues --  -11.33925 -11.31096 -11.30750 -11.27928 -11.27015
 Alpha  occ. eigenvalues --  -11.25837 -10.55464  -8.02312  -8.01991  -8.01980
 Alpha  occ. eigenvalues --   -1.42760  -1.39764  -1.38394  -1.29947  -1.25414
 Alpha  occ. eigenvalues --   -1.21952  -1.14468  -1.07625  -1.01828  -0.98677
 Alpha  occ. eigenvalues --   -0.96471  -0.89381  -0.88853  -0.86424  -0.82019
 Alpha  occ. eigenvalues --   -0.79214  -0.72953  -0.70128  -0.69261  -0.67392
 Alpha  occ. eigenvalues --   -0.66799  -0.64923  -0.64494  -0.63270  -0.62835
 Alpha  occ. eigenvalues --   -0.62402  -0.59925  -0.58215  -0.56609  -0.56064
 Alpha  occ. eigenvalues --   -0.55378  -0.55079  -0.54861  -0.54219  -0.48623
 Alpha  occ. eigenvalues --   -0.47087  -0.46887  -0.44735  -0.44606  -0.43958
 Alpha  occ. eigenvalues --   -0.41532  -0.40366  -0.32455
 Alpha virt. eigenvalues --    0.09618   0.17354   0.17971   0.19642   0.22912
 Alpha virt. eigenvalues --    0.25123   0.25662   0.26166   0.27271   0.27851
 Alpha virt. eigenvalues --    0.29412   0.29685   0.30712   0.31714   0.32698

 Mulliken charges:
               1
     1  C   -0.299874
     2  N   -0.880808
     3  C    0.639314
     4  C    0.115566
     5  C    0.917784
     6  O   -0.655404
     7  N   -0.875621
     8  C    1.112685
     9  O   -0.637357
    10  C   -0.292977
    11  N   -0.724878
    12  C    0.326902
    13  N   -0.596624
    14  C   -0.115430
    15  C   -0.410118
    16  Cl  -0.094963
    17  H    0.244267
    18  H    0.197422
    19  H    0.197953
    20  H    0.199169
    21  H    0.198864
    22  H    0.236230
    23  H    0.247924
    24  H    0.209430
    25  H    0.245650
    26  H    0.274379
    27  H    0.220513
 Sum of Mulliken charges =   0.00000

 Dipole moment (field-independent basis, Debye):
    X=              0.7269    Y=             -3.2836    Z=             -0.1321  Tot=              3.3657
 Quadrupole moment (field-independent basis, Debye-Ang):
   XX=           -118.2234   YY=           -100.0899   ZZ=            -98.4313
   XY=             -5.5460   XZ=             -0.2373   YZ=              1.2218

 ESP charges:
               1
     1  C   -0.247415
     2  N   -0.333972
     3  C    0.686128
     4  C   -0.621219
     5  C    0.804402
     6  O   -0.545625
     7  N   -0.432405
     8  C    0.771124
     9  O   -0.580479
    10  C   -0.145785
    11  N    0.094036
    12  C    0.214696
    13  N   -0.635657
    14  C   -0.145355
    15  C   -0.109107
    16  Cl  -0.182176
    17  H    0.150622
    18  H    0.125634
    19  H    0.125954
    20  H    0.107071
    21  H    0.104795
    22  H    0.100742
    23  H    0.160386
    24  H    0.101048
    25  H    0.151499
    26  H    0.147638
    27  H    0.133418
 Sum of ESP charges =   0.00000

 Normal termination of Gaussian 09 at Thu Jan 16 21:50:49 2014.
