 Gaussian 09, Revision D.01,
 Gaussian 09:  AM64L-G09RevD.01 24-Apr-2013

 -----------------------------------------
 # hf/gen pop=mk iop(6/33=2,6/41=5,6/42=2)
 -----------------------------------------

 -------
 na resp
 -------
 Symbolic Z-matrix:
 Charge =  0 Multiplicity = 1

                         Standard orientation:
 ---------------------------------------------------------------------
 Center     Atomic      Atomic             Coordinates (Angstroms)
 Number     Number       Type             X           Y           Z
 ---------------------------------------------------------------------
      1          6           0        0.949247    1.323997   -0.001567
      2          6           0        2.339326    1.247659   -0.001453
      3          6           0        2.951422   -0.004739   -0.000013
      4          6           0        2.192059   -1.173011    0.001260
      5          6           0        0.802459   -1.083312    0.001175
      6          6           0        0.156987    0.163997   -0.000174
      7          6           0       -1.309423    0.228010   -0.000113
      8          6           0       -2.123087    1.349793    0.000803
      9          7           0       -3.417004    0.861900    0.000654
     10          6           0       -4.722220    1.339588    0.001441
     11          6           0       -5.631485    0.340126    0.000742
     12         16           0       -4.894219   -1.263863   -0.000932
     13          6           0       -3.306546   -0.516098   -0.000584
     14          7           0       -2.068464   -0.936239   -0.001104
     15         35           0        4.861285   -0.118212    0.000132
     16          1           0        0.481734    2.304858   -0.002920
     17          1           0        2.941629    2.149690   -0.002556
     18          1           0        2.681151   -2.141227    0.002333
     19          1           0        0.197405   -1.983402    0.002154
     20          1           0       -1.913157    2.407444    0.001864
     21          1           0       -4.913602    2.403779    0.002416
     22          1           0       -6.706804    0.442386    0.001046
 ---------------------------------------------------------------------

 SCF Done:  E(RHF) =  -3496.59906180     A.U. after   17 cycles

 The electronic state is 1-A.
 Alpha  occ. eigenvalues -- -489.83714 -91.98848 -64.38094 -58.54775 -58.54602
 Alpha  occ. eigenvalues --  -58.54594 -15.65453 -15.56171 -11.34102 -11.31389
 Alpha  occ. eigenvalues --  -11.29490 -11.29012 -11.27621 -11.27366 -11.25357
 Alpha  occ. eigenvalues --  -11.24810 -11.24614 -11.24510 -11.23786  -9.65850
 Alpha  occ. eigenvalues --   -9.00294  -7.47410  -7.46540  -7.46535  -6.68471
 Alpha  occ. eigenvalues --   -6.68385  -6.68168  -3.21725  -3.21306  -3.21304
 Alpha  occ. eigenvalues --   -3.20296  -3.20296  -1.37947  -1.22722  -1.16681
 Alpha  occ. eigenvalues --   -1.12443  -1.07206  -1.02477  -1.00965  -0.99391
 Alpha  occ. eigenvalues --   -0.95250  -0.85311  -0.84033  -0.83209  -0.78332
 Alpha  occ. eigenvalues --   -0.76750  -0.70749  -0.69048  -0.65129  -0.64705
 Alpha  occ. eigenvalues --   -0.63549  -0.62949  -0.60329  -0.59446  -0.58403
 Alpha  occ. eigenvalues --   -0.54794  -0.53093  -0.51135  -0.50505  -0.48955
 Alpha  occ. eigenvalues --   -0.48584  -0.45137  -0.44774  -0.43041  -0.40720
 Alpha  occ. eigenvalues --   -0.36193  -0.34365  -0.31953  -0.28455
 Alpha virt. eigenvalues --    0.09607   0.13324   0.14232   0.15575   0.17132
 Alpha virt. eigenvalues --    0.19840   0.23103   0.23781   0.24199   0.24712
 Alpha virt. eigenvalues --    0.28292   0.28541   0.29852   0.31732   0.33511

 Mulliken charges:
               1
     1  C   -0.210768
     2  C   -0.189207
     3  C    0.002958
     4  C   -0.183955
     5  C   -0.202956
     6  C   -0.016539
     7  C    0.178481
     8  C    0.014054
     9  N   -0.673216
    10  C    0.144105
    11  C   -0.490817
    12  S    0.345899
    13  C    0.368989
    14  N   -0.609938
    15  Br  -0.147787
    16  H    0.207741
    17  H    0.230847
    18  H    0.233612
    19  H    0.257865
    20  H    0.236808
    21  H    0.248624
    22  H    0.255199
 Sum of Mulliken charges =   0.00000

 Dipole moment (field-independent basis, Debye):
    X=             -4.9048    Y=              3.5727    Z=              0.0039  Tot=              6.0681
 Quadrupole moment (field-independent basis, Debye-Ang):
   XX=            -89.7872   YY=            -95.5516   ZZ=           -112.4282
   XY=            -11.1290   XZ=             -0.0148   YZ=             -0.0051

 ESP charges:
               1
     1  C   -0.315216
     2  C    0.057698
     3  C   -0.205738
     4  C    0.034649
     5  C   -0.224073
     6  C    0.234244
     7  C    0.146204
     8  C   -0.554918
     9  N    0.458593
    10  C   -0.360587
    11  C   -0.306540
    12  S    0.015850
    13  C    0.187024
    14  N   -0.429122
    15  Br  -0.079279
    16  H    0.167517
    17  H    0.114062
    18  H    0.125113
    19  H    0.135451
    20  H    0.259957
    21  H    0.258159
    22  H    0.280953
 Sum of ESP charges =   0.00000

 Normal termination of Gaussian 09 at Thu Jan 16 22:40:27 2014.
