 Gaussian 09, Revision D.01,
 Gaussian 09:  AM64L-G09RevD.01 24-Apr-2013

 -----------------------------------------
 # hf/gen pop=mk iop(6/33=2,6/41=5,6/42=2)
 -----------------------------------------

 -------
 na resp
 -------
 Symbolic Z-matrix:
 Charge =  0 Multiplicity = 1

                         Standard orientation:
 ---------------------------------------------------------------------
 Center     Atomic      Atomic             Coordinates (Angstroms)
 Number     Number       Type             X           Y           Z
 ---------------------------------------------------------------------
      1          6           0       -2.575535    2.145046    0.478893
      2          6           0       -2.686061    0.689798    0.139481
      3          6           0       -1.678871   -0.242662   -0.072206
      4          7           0       -2.352463   -1.438273   -0.295285
      5          1           0       -1.922828   -2.311192   -0.565647
      6          6           0       -3.687156   -1.175803   -0.233861
      7          7           0       -3.923097    0.089347    0.036717
      8          6           0       -0.218796   -0.164270   -0.048647
      9          6           0        0.453875    0.999719   -0.463762
     10          6           0        1.843902    1.080455   -0.437609
     11          6           0        2.586154   -0.018340   -0.007184
     12          6           0        1.951763   -1.190353    0.402559
     13          6           0        0.561010   -1.253362    0.385295
     14         17           0        4.341963    0.073691    0.018224
     15          1           0       -3.422106    2.437427    1.106972
     16          1           0       -1.647941    2.367774    1.016092
     17          1           0       -2.603027    2.779368   -0.417570
     18          1           0       -4.436402   -1.940812   -0.389558
     19          1           0       -0.116328    1.844784   -0.834610
     20          1           0        2.348880    1.983605   -0.763620
     21          1           0        2.538727   -2.036426    0.744195
     22          1           0        0.074862   -2.156160    0.746155
 ---------------------------------------------------------------------

 SCF Done:  E(RHF) =  -952.300552030     A.U. after   15 cycles

 The electronic state is 1-A.
 Alpha  occ. eigenvalues -- -104.82333 -15.62476 -15.54716 -11.30874 -11.30124
 Alpha  occ. eigenvalues --  -11.26905 -11.26800 -11.25899 -11.25748 -11.25676
 Alpha  occ. eigenvalues --  -11.25507 -11.25363 -11.21884 -10.56173  -8.03030
 Alpha  occ. eigenvalues --   -8.02700  -8.02696  -1.34145  -1.19318  -1.17118
 Alpha  occ. eigenvalues --   -1.12633  -1.05207  -1.03621  -0.99693  -0.93724
 Alpha  occ. eigenvalues --   -0.85744  -0.83890  -0.82046  -0.76498  -0.74291
 Alpha  occ. eigenvalues --   -0.67759  -0.65824  -0.65329  -0.61700  -0.61123
 Alpha  occ. eigenvalues --   -0.60311  -0.58810  -0.55380  -0.54612  -0.54352
 Alpha  occ. eigenvalues --   -0.53487  -0.52059  -0.51445  -0.47435  -0.45577
 Alpha  occ. eigenvalues --   -0.43360  -0.39538  -0.36450  -0.35608  -0.28414
 Alpha virt. eigenvalues --    0.10041   0.11997   0.18628   0.19613   0.21731
 Alpha virt. eigenvalues --    0.23802   0.25233   0.27237   0.28528   0.29017
 Alpha virt. eigenvalues --    0.30775   0.32418   0.32916   0.35040   0.35873

 Mulliken charges:
               1
     1  C   -0.540782
     2  C    0.188845
     3  C    0.231365
     4  N   -0.808883
     5  H    0.403897
     6  C    0.288341
     7  N   -0.549078
     8  C    0.025559
     9  C   -0.214422
    10  C   -0.181397
    11  C   -0.144694
    12  C   -0.177952
    13  C   -0.221576
    14  Cl  -0.001716
    15  H    0.202162
    16  H    0.179092
    17  H    0.178496
    18  H    0.224836
    19  H    0.233959
    20  H    0.236615
    21  H    0.235074
    22  H    0.212258
 Sum of Mulliken charges =   0.00000

 Dipole moment (field-independent basis, Debye):
    X=              0.0622    Y=             -2.3887    Z=             -0.6913  Tot=              2.4875
 Quadrupole moment (field-independent basis, Debye-Ang):
   XX=           -101.4195   YY=            -68.3969   ZZ=            -85.7059
   XY=              7.6540   XZ=              2.0749   YZ=             -0.5636

 ESP charges:
               1
     1  C   -0.524741
     2  C    0.531391
     3  C   -0.182799
     4  N   -0.441505
     5  H    0.366759
     6  C    0.284654
     7  N   -0.641237
     8  C    0.204119
     9  C   -0.260002
    10  C   -0.018699
    11  C   -0.048033
    12  C   -0.053385
    13  C   -0.231274
    14  Cl  -0.115067
    15  H    0.162862
    16  H    0.121216
    17  H    0.139542
    18  H    0.118206
    19  H    0.161321
    20  H    0.134046
    21  H    0.140682
    22  H    0.151945
 Sum of ESP charges =   0.00000

 Normal termination of Gaussian 09 at Thu Jan 16 21:48:43 2014.
