 Gaussian 09, Revision D.01,
 Gaussian 09:  AM64L-G09RevD.01 24-Apr-2013

 -----------------------------------------
 # hf/gen pop=mk iop(6/33=2,6/41=5,6/42=2)
 -----------------------------------------

 -------
 na resp
 -------
 Symbolic Z-matrix:
 Charge =  0 Multiplicity = 1

                         Standard orientation:
 ---------------------------------------------------------------------
 Center     Atomic      Atomic             Coordinates (Angstroms)
 Number     Number       Type             X           Y           Z
 ---------------------------------------------------------------------
      1          6           0       -0.800708    2.547734   -0.006305
      2          6           0       -0.060820    1.233424   -0.004948
      3          6           0        1.338514    1.207612   -0.013453
      4          6           0        2.033183   -0.000119   -0.013590
      5          6           0        1.338407   -1.207773   -0.013360
      6          6           0       -0.060935   -1.233448   -0.004934
      7          6           0       -0.729899    0.000017    0.002436
      8         17           0       -2.499426    0.000099    0.014673
      9          6           0       -0.800944   -2.547688   -0.006266
     10          8           0        3.420425   -0.000320   -0.076491
     11          1           0       -1.442878    2.646740    0.876498
     12          1           0       -0.097926    3.385702   -0.015127
     13          1           0       -1.453120    2.637882   -0.882414
     14          1           0        1.899266    2.137722   -0.029364
     15          1           0        1.899109   -2.137909   -0.029099
     16          1           0       -1.443529   -2.646407    0.876260
     17          1           0       -1.452961   -2.638000   -0.882659
     18          1           0       -0.098235   -3.385722   -0.014567
     19          1           0        3.776335    0.002315    0.825476
 ---------------------------------------------------------------------

 SCF Done:  E(RHF) =  -842.521694208     A.U. after   14 cycles

 The electronic state is 1-A.
 Alpha  occ. eigenvalues -- -104.81520 -20.58300 -11.30138 -11.29457 -11.26224
 Alpha  occ. eigenvalues --  -11.26221 -11.23594 -11.23591 -11.22810 -11.22809
 Alpha  occ. eigenvalues --  -10.55348  -8.02200  -8.01886  -8.01881  -1.38769
 Alpha  occ. eigenvalues --   -1.18619  -1.10552  -1.07064  -1.00570  -0.93909
 Alpha  occ. eigenvalues --   -0.93791  -0.80724  -0.80629  -0.71060  -0.68329
 Alpha  occ. eigenvalues --   -0.65727  -0.61373  -0.59147  -0.57853  -0.57249
 Alpha  occ. eigenvalues --   -0.57177  -0.56130  -0.55420  -0.51855  -0.50536
 Alpha  occ. eigenvalues --   -0.49999  -0.47491  -0.45595  -0.44599  -0.33343
 Alpha  occ. eigenvalues --   -0.32122
 Alpha virt. eigenvalues --    0.13290   0.13466   0.20445   0.22322   0.24719
 Alpha virt. eigenvalues --    0.26518   0.27970   0.29009   0.31274   0.32376
 Alpha virt. eigenvalues --    0.32485   0.34154   0.38053   0.39456   0.42529

 Mulliken charges:
               1
     1  C   -0.525165
     2  C    0.091782
     3  C   -0.277334
     4  C    0.420646
     5  C   -0.277238
     6  C    0.091774
     7  C   -0.225275
     8  Cl  -0.007414
     9  C   -0.525166
    10  O   -0.823489
    11  H    0.197390
    12  H    0.180692
    13  H    0.199672
    14  H    0.218281
    15  H    0.218342
    16  H    0.197396
    17  H    0.199660
    18  H    0.180705
    19  H    0.464740
 Sum of Mulliken charges =   0.00000

 Dipole moment (field-independent basis, Debye):
    X=              1.0481    Y=              0.0043    Z=              1.6287  Tot=              1.9368
 Quadrupole moment (field-independent basis, Debye-Ang):
   XX=            -69.0308   YY=            -58.9563   ZZ=            -67.5386
   XY=              0.0194   XZ=              6.8746   YZ=              0.0047

 ESP charges:
               1
     1  C   -0.306860
     2  C    0.478738
     3  C   -0.722902
     4  C    0.753380
     5  C   -0.722774
     6  C    0.478808
     7  C   -0.366580
     8  Cl  -0.087363
     9  C   -0.306935
    10  O   -0.640206
    11  H    0.082025
    12  H    0.097542
    13  H    0.097249
    14  H    0.245548
    15  H    0.245549
    16  H    0.082022
    17  H    0.097271
    18  H    0.097574
    19  H    0.397912
 Sum of ESP charges =   0.00000

 Normal termination of Gaussian 09 at Thu Jan 16 21:47:09 2014.
