 Gaussian 09, Revision D.01,
 Gaussian 09:  AM64L-G09RevD.01 24-Apr-2013

 ------------------------------------------------------------------
 # hf/gen pseudo=read pop=(mk, readradii) iop(6/33=2,6/41=5,6/42=2)
 ------------------------------------------------------------------

 -------
 na resp
 -------
 Symbolic Z-matrix:
 Charge =  0 Multiplicity = 1

                         Standard orientation:
 ---------------------------------------------------------------------
 Center     Atomic      Atomic             Coordinates (Angstroms)
 Number     Number       Type             X           Y           Z
 ---------------------------------------------------------------------
      1          6           0        1.195157    1.416964   -0.857150
      2          6           0        2.557918    1.132111   -0.874242
      3          6           0        3.054373    0.123319   -0.050166
      4          6           0        2.198123   -0.593125    0.783145
      5          6           0        0.831700   -0.309259    0.801221
      6          6           0        0.319250    0.703647   -0.023960
      7          7           0       -1.046152    1.052735   -0.067781
      8          6           0       -2.102760    0.520040    0.641652
      9          8           0       -1.991070   -0.402782    1.437701
     10          6           0       -3.445276    1.202675    0.374735
     11          6           0       -4.618816    0.211869    0.371617
     12          6           0       -4.548324   -0.781168   -0.803330
     13          6           0       -5.788597   -1.679053   -0.825045
     14          8           0       -6.989196   -0.920300   -0.880124
     15          6           0       -7.126169   -0.067197    0.246684
     16          6           0       -5.974708    0.939377    0.341446
     17         53           0        5.151726   -0.324051   -0.069506
     18          1           0        0.810047    2.204730   -1.501792
     19          1           0        3.216816    1.695421   -1.525692
     20          1           0        2.582301   -1.377606    1.426061
     21          1           0        0.162434   -0.862485    1.444772
     22          1           0       -1.273122    1.806003   -0.702665
     23          1           0       -3.594267    1.938994    1.178087
     24          1           0       -3.424096    1.767826   -0.567494
     25          1           0       -4.551868   -0.365214    1.303932
     26          1           0       -4.497357   -0.228256   -1.752425
     27          1           0       -3.646192   -1.400984   -0.729428
     28          1           0       -5.795692   -2.328689    0.068148
     29          1           0       -5.796171   -2.322968   -1.709835
     30          1           0       -7.172180   -0.669865    1.171414
     31          1           0       -8.087806    0.441732    0.128013
     32          1           0       -6.101142    1.562897    1.237211
     33          1           0       -6.019231    1.607461   -0.530270
 ---------------------------------------------------------------------

 SCF Done:  E(RHF) =  -716.940599524     A.U. after   16 cycles

 The electronic state is 1-A.
 Alpha  occ. eigenvalues --  -20.55628 -20.54418 -15.61926 -11.37519 -11.30388
 Alpha  occ. eigenvalues --  -11.29135 -11.27556 -11.27373 -11.25977 -11.25554
 Alpha  occ. eigenvalues --  -11.25370 -11.25232 -11.24200 -11.23969 -11.22953
 Alpha  occ. eigenvalues --  -11.22570  -1.39661  -1.37192  -1.26712  -1.15986
 Alpha  occ. eigenvalues --   -1.11268  -1.03987  -1.03232  -1.02961  -0.99141
 Alpha  occ. eigenvalues --   -0.89763  -0.86809  -0.86289  -0.85641  -0.81711
 Alpha  occ. eigenvalues --   -0.78655  -0.77330  -0.73506  -0.69474  -0.67213
 Alpha  occ. eigenvalues --   -0.64620  -0.64365  -0.64052  -0.63576  -0.63150
 Alpha  occ. eigenvalues --   -0.62213  -0.60499  -0.59759  -0.59050  -0.57121
 Alpha  occ. eigenvalues --   -0.55543  -0.54016  -0.53720  -0.51707  -0.51318
 Alpha  occ. eigenvalues --   -0.50245  -0.48105  -0.46322  -0.45825  -0.45697
 Alpha  occ. eigenvalues --   -0.44992  -0.42764  -0.40651  -0.37856  -0.36658
 Alpha  occ. eigenvalues --   -0.35140  -0.30583
 Alpha virt. eigenvalues --    0.11182   0.11824   0.12632   0.19476   0.19841
 Alpha virt. eigenvalues --    0.23036   0.24217   0.25409   0.26256   0.27477
 Alpha virt. eigenvalues --    0.29103   0.30333   0.30394   0.31201   0.31691

 Mulliken charges:
               1
     1  C   -0.265457
     2  C   -0.128004
     3  C   -0.412308
     4  C   -0.130760
     5  C   -0.244551
     6  C    0.384622
     7  N   -0.953545
     8  C    0.834313
     9  O   -0.630487
    10  C   -0.437394
    11  C   -0.183575
    12  C   -0.344398
    13  C    0.016112
    14  O   -0.660776
    15  C    0.018489
    16  C   -0.335312
    17  I    0.181804
    18  H    0.205091
    19  H    0.228459
    20  H    0.230767
    21  H    0.291604
    22  H    0.403168
    23  H    0.213133
    24  H    0.174157
    25  H    0.204869
    26  H    0.162048
    27  H    0.187947
    28  H    0.150350
    29  H    0.180200
    30  H    0.146760
    31  H    0.179184
    32  H    0.166803
    33  H    0.166689
 Sum of Mulliken charges =   0.00000

 Dipole moment (field-independent basis, Debye):
    X=             -1.5762    Y=              3.2463    Z=             -1.0813  Tot=              3.7672
 Quadrupole moment (field-independent basis, Debye-Ang):
   XX=           -132.3302   YY=           -109.9666   ZZ=           -118.6282
   XY=             -9.2190   XZ=             -6.3080   YZ=             -4.2221

 ESP charges:
               1
     1  C   -0.557890
     2  C    0.280150
     3  C   -0.496440
     4  C    0.245086
     5  C   -0.503707
     6  C    0.668100
     7  N   -0.871832
     8  C    1.012628
     9  O   -0.630762
    10  C   -0.871003
    11  C    0.522552
    12  C   -0.212471
    13  C    0.153370
    14  O   -0.457793
    15  C    0.113000
    16  C   -0.158669
    17  I   -0.016170
    18  H    0.201536
    19  H    0.093435
    20  H    0.100856
    21  H    0.242168
    22  H    0.409972
    23  H    0.219180
    24  H    0.181752
    25  H   -0.038647
    26  H    0.063209
    27  H    0.043890
    28  H    0.021534
    29  H    0.062382
    30  H    0.028085
    31  H    0.067518
    32  H    0.021116
    33  H    0.063864
 Sum of ESP charges =   0.00000

 Normal termination of Gaussian 09 at Fri Jan 17 11:58:27 2014.
