 Gaussian 09, Revision D.01,
 Gaussian 09:  AM64L-G09RevD.01 24-Apr-2013

 -----------------------------------------
 # hf/gen pop=mk iop(6/33=2,6/41=5,6/42=2)
 -----------------------------------------

 -------
 na resp
 -------
 Symbolic Z-matrix:
 Charge =  0 Multiplicity = 1

                         Standard orientation:
 ---------------------------------------------------------------------
 Center     Atomic      Atomic             Coordinates (Angstroms)
 Number     Number       Type             X           Y           Z
 ---------------------------------------------------------------------
      1          6           0        4.356936   -0.293182    1.308265
      2          6           0        3.861769   -0.125264   -0.121903
      3          1           0        4.668190   -0.310099   -0.836321
      4          6           0        3.155444    1.235718   -0.389565
      5          6           0        1.707363    0.831255   -0.674848
      6          1           0        1.482098    0.808564   -1.753174
      7          7           0        1.651982   -0.511269   -0.103578
      8          8           0        2.867174   -1.138348   -0.446132
      9          6           0        0.476635   -1.233731   -0.155968
     10          8           0        0.389307   -2.448044   -0.165697
     11          6           0       -0.688211   -0.289975   -0.090921
     12          6           0       -1.983692   -0.814938   -0.049793
     13          6           0       -3.066836    0.043947    0.084748
     14          6           0       -2.879532    1.425810    0.191845
     15          6           0       -1.592672    1.955118    0.147847
     16          6           0       -0.499807    1.100913   -0.000017
     17          8           0        0.757910    1.657524   -0.027522
     18         17           0       -4.697599   -0.610183    0.132639
     19          1           0        3.529144   -0.173995    2.015036
     20          1           0        4.792744   -1.287082    1.446913
     21          1           0        5.121864    0.457591    1.539493
     22          1           0        3.593856    1.779956   -1.229115
     23          1           0        3.178147    1.878439    0.494888
     24          1           0       -2.109652   -1.890245   -0.110327
     25          1           0       -3.737053    2.081343    0.299702
     26          1           0       -1.423531    3.024442    0.219766
 ---------------------------------------------------------------------

 SCF Done:  E(RHF) =  -1160.83086930     A.U. after   16 cycles

 The electronic state is 1-A.
 Alpha  occ. eigenvalues -- -104.82574 -20.62393 -20.62073 -20.54552 -15.64726
 Alpha  occ. eigenvalues --  -11.37580 -11.35768 -11.33854 -11.31214 -11.31095
 Alpha  occ. eigenvalues --  -11.27674 -11.27253 -11.26907 -11.26099 -11.25650
 Alpha  occ. eigenvalues --  -11.22919 -10.56403  -8.03262  -8.02929  -8.02922
 Alpha  occ. eigenvalues --   -1.47518  -1.43889  -1.38247  -1.20100  -1.19000
 Alpha  occ. eigenvalues --   -1.13171  -1.09259  -1.05824  -1.02071  -0.98148
 Alpha  occ. eigenvalues --   -0.89867  -0.88867  -0.84795  -0.82853  -0.78857
 Alpha  occ. eigenvalues --   -0.75866  -0.72356  -0.70756  -0.67113  -0.65662
 Alpha  occ. eigenvalues --   -0.64777  -0.63641  -0.63348  -0.61815  -0.61721
 Alpha  occ. eigenvalues --   -0.59394  -0.58765  -0.56996  -0.55794  -0.54658
 Alpha  occ. eigenvalues --   -0.54187  -0.53516  -0.52486  -0.51293  -0.49996
 Alpha  occ. eigenvalues --   -0.47863  -0.46045  -0.45931  -0.43932  -0.38942
 Alpha  occ. eigenvalues --   -0.36734  -0.33330
 Alpha virt. eigenvalues --    0.07750   0.12129   0.18842   0.20013   0.22356
 Alpha virt. eigenvalues --    0.24143   0.25589   0.26733   0.27881   0.28686
 Alpha virt. eigenvalues --    0.29823   0.30483   0.30681   0.31074   0.31980

 Mulliken charges:
               1
     1  C   -0.501713
     2  C    0.201216
     3  H    0.199378
     4  C   -0.462195
     5  C    0.452734
     6  H    0.195887
     7  N   -0.412278
     8  O   -0.514999
     9  C    0.875489
    10  O   -0.590806
    11  C   -0.226085
    12  C   -0.140616
    13  C   -0.168509
    14  C   -0.154672
    15  C   -0.256359
    16  C    0.471339
    17  O   -0.728454
    18  Cl   0.009438
    19  H    0.191573
    20  H    0.193666
    21  H    0.165900
    22  H    0.204719
    23  H    0.222957
    24  H    0.285427
    25  H    0.246639
    26  H    0.240325
 Sum of Mulliken charges =   0.00000

 Dipole moment (field-independent basis, Debye):
    X=              2.6836    Y=              5.2773    Z=             -0.5494  Tot=              5.9459
 Quadrupole moment (field-independent basis, Debye-Ang):
   XX=            -89.4247   YY=           -106.3518   ZZ=            -99.1663
   XY=              2.2270   XZ=             -1.0210   YZ=             -1.6637

 ESP charges:
               1
     1  C   -0.391859
     2  C    0.477920
     3  H    0.022008
     4  C   -0.405626
     5  C    0.515195
     6  H    0.017111
     7  N   -0.262359
     8  O   -0.368803
     9  C    0.790121
    10  O   -0.552433
    11  C   -0.507767
    12  C    0.172459
    13  C   -0.176624
    14  C    0.089970
    15  C   -0.421743
    16  C    0.532809
    17  O   -0.481821
    18  Cl  -0.095795
    19  H    0.114173
    20  H    0.121825
    21  H    0.084347
    22  H    0.111186
    23  H    0.151994
    24  H    0.119285
    25  H    0.132785
    26  H    0.211640
 Sum of ESP charges =   0.00000

 Normal termination of Gaussian 09 at Thu Jan 16 21:50:47 2014.
