 Gaussian 09, Revision D.01,
 Gaussian 09:  AM64L-G09RevD.01 24-Apr-2013

 -----------------------------------------
 # hf/gen pop=mk iop(6/33=2,6/41=5,6/42=2)
 -----------------------------------------

 -------
 na resp
 -------
 Symbolic Z-matrix:
 Charge =  0 Multiplicity = 1

                         Standard orientation:
 ---------------------------------------------------------------------
 Center     Atomic      Atomic             Coordinates (Angstroms)
 Number     Number       Type             X           Y           Z
 ---------------------------------------------------------------------
      1          6           0        2.393018    1.491644   -1.028413
      2          6           0        1.524107    0.659459   -0.101327
      3          6           0        2.092045    0.464108    1.343870
      4          6           0        1.277616   -0.734421    1.919813
      5          6           0        0.272475   -1.048883    0.778615
      6          1           0       -0.213276   -2.024339    0.854797
      7          6           0        1.140568   -0.811469   -0.507731
      8          6           0        2.336370   -1.773778   -0.613969
      9          6           0        0.377871   -0.891453   -1.843507
     10          6           0       -0.706122    0.138136    0.800759
     11          1           0       -0.991660    0.439749    1.809620
     12          6           0        0.123815    1.254332    0.121097
     13          8           0       -0.253008    2.369278   -0.148423
     14         35           0       -2.455321   -0.161619   -0.072690
     15          1           0        1.941560    1.587064   -2.021238
     16          1           0        2.515353    2.504719   -0.630898
     17          1           0        3.387592    1.045871   -1.141627
     18          1           0        3.162584    0.241922    1.288893
     19          1           0        1.989893    1.375467    1.942790
     20          1           0        1.916576   -1.596668    2.129108
     21          1           0        0.766342   -0.485875    2.855606
     22          1           0        2.995547   -1.768960    0.257352
     23          1           0        1.976536   -2.801148   -0.749760
     24          1           0        2.947477   -1.526199   -1.489353
     25          1           0        1.063610   -0.697081   -2.676321
     26          1           0       -0.039089   -1.894798   -1.987512
     27          1           0       -0.449318   -0.183342   -1.925140
 ---------------------------------------------------------------------

 SCF Done:  E(RHF) =  -3031.86021811     A.U. after   16 cycles

 The electronic state is 1-A.
 Alpha  occ. eigenvalues -- -489.83268 -64.37681 -58.54342 -58.54177 -58.54174
 Alpha  occ. eigenvalues --  -20.56687 -11.34268 -11.30297 -11.25732 -11.25386
 Alpha  occ. eigenvalues --  -11.25377 -11.24320 -11.24201 -11.22664 -11.22196
 Alpha  occ. eigenvalues --  -11.21835  -9.65418  -7.46973  -7.46104  -7.46096
 Alpha  occ. eigenvalues --   -3.21275  -3.20873  -3.20865  -3.19855  -3.19854
 Alpha  occ. eigenvalues --   -1.39760  -1.19934  -1.06871  -1.04385  -1.02300
 Alpha  occ. eigenvalues --   -0.95833  -0.93355  -0.92094  -0.86501  -0.81197
 Alpha  occ. eigenvalues --   -0.74772  -0.71246  -0.67353  -0.66359  -0.64492
 Alpha  occ. eigenvalues --   -0.62226  -0.60999  -0.58306  -0.57405  -0.56069
 Alpha  occ. eigenvalues --   -0.54719  -0.54052  -0.53559  -0.52950  -0.51809
 Alpha  occ. eigenvalues --   -0.50490  -0.49684  -0.48384  -0.46537  -0.45713
 Alpha  occ. eigenvalues --   -0.43390  -0.41108  -0.39423  -0.38313
 Alpha virt. eigenvalues --    0.11080   0.18788   0.21222   0.23531   0.24267
 Alpha virt. eigenvalues --    0.26738   0.27006   0.28457   0.29163   0.29901
 Alpha virt. eigenvalues --    0.30631   0.31439   0.32702   0.33481   0.33722

 Mulliken charges:
               1
     1  C   -0.480322
     2  C   -0.129560
     3  C   -0.344195
     4  C   -0.348738
     5  C   -0.182879
     6  H    0.208846
     7  C   -0.034272
     8  C   -0.488989
     9  C   -0.496671
    10  C   -0.245790
    11  H    0.254958
    12  C    0.598623
    13  O   -0.534506
    14  Br  -0.146677
    15  H    0.184115
    16  H    0.190055
    17  H    0.166657
    18  H    0.192074
    19  H    0.192980
    20  H    0.192871
    21  H    0.183322
    22  H    0.171784
    23  H    0.174105
    24  H    0.175470
    25  H    0.170341
    26  H    0.175764
    27  H    0.200632
 Sum of Mulliken charges =   0.00000

 Dipole moment (field-independent basis, Debye):
    X=              3.3495    Y=             -2.7643    Z=              1.3666  Tot=              4.5528
 Quadrupole moment (field-independent basis, Debye-Ang):
   XX=            -87.6540   YY=            -93.9505   ZZ=            -83.0350
   XY=              1.5632   XZ=              0.0097   YZ=              1.4162

 ESP charges:
               1
     1  C   -0.516545
     2  C    0.031762
     3  C   -0.089973
     4  C   -0.231977
     5  C    0.183616
     6  H    0.040701
     7  C    0.388961
     8  C   -0.576378
     9  C   -0.408070
    10  C   -0.674138
    11  H    0.284371
    12  C    0.772841
    13  O   -0.540858
    14  Br  -0.074997
    15  H    0.138208
    16  H    0.134591
    17  H    0.140201
    18  H    0.064485
    19  H    0.052190
    20  H    0.062829
    21  H    0.085715
    22  H    0.154966
    23  H    0.128541
    24  H    0.145200
    25  H    0.106846
    26  H    0.097372
    27  H    0.099537
 Sum of ESP charges =   0.00000

 Normal termination of Gaussian 09 at Thu Jan 16 22:40:39 2014.
