 Gaussian 09, Revision D.01,
 Gaussian 09:  AM64L-G09RevD.01 24-Apr-2013

 -----------------------------------------
 # hf/gen pop=mk iop(6/33=2,6/41=5,6/42=2)
 -----------------------------------------

 -------
 na resp
 -------
 Symbolic Z-matrix:
 Charge =  0 Multiplicity = 1

                         Standard orientation:
 ---------------------------------------------------------------------
 Center     Atomic      Atomic             Coordinates (Angstroms)
 Number     Number       Type             X           Y           Z
 ---------------------------------------------------------------------
      1          7           0        2.455721    1.813925   -0.000020
      2          6           0        1.316595    1.128189   -0.000055
      3          7           0        0.205800    1.956628   -0.000094
      4          6           0        0.687926    3.243689    0.000067
      5          6           0        2.067306    3.120082    0.000102
      6          6           0       -1.080593    1.432348   -0.000052
      7          6           0       -1.166502    0.071281   -0.000023
      8          7           0       -0.137384   -0.796521    0.000017
      9          6           0        1.090216   -0.289219    0.000010
     10          7           0        2.168684   -1.101057   -0.000019
     11          6           0        2.083752   -2.555085    0.000007
     12          6           0        3.479275   -3.170415   -0.000003
     13         35           0       -2.920750   -0.706269    0.000018
     14          1           0        4.046674   -2.870257    0.888751
     15          1           0        3.408579   -4.262366    0.000023
     16          1           0        4.046648   -2.870297   -0.888788
     17          1           0        1.514142   -2.883886    0.878508
     18          1           0        1.514114   -2.883923   -0.878462
     19          1           0        3.071570   -0.645166   -0.000043
     20          1           0        2.792271    3.923479    0.000301
     21          1           0        0.031141    4.100024   -0.000329
     22          1           0       -1.916475    2.115766   -0.000080
 ---------------------------------------------------------------------

 SCF Done:  E(RHF) =  -3095.55260054     A.U. after   16 cycles

 The electronic state is 1-A.
 Alpha  occ. eigenvalues -- -489.84002 -64.38409 -58.55082 -58.54908 -58.54903
 Alpha  occ. eigenvalues --  -15.66917 -15.59070 -15.56958 -15.56823 -11.35043
 Alpha  occ. eigenvalues --  -11.33656 -11.31362 -11.28826 -11.27724 -11.26771
 Alpha  occ. eigenvalues --  -11.26718 -11.22919  -9.66187  -7.47766  -7.46863
 Alpha  occ. eigenvalues --   -7.46857  -3.22083  -3.21654  -3.21644  -3.20606
 Alpha  occ. eigenvalues --   -3.20605  -1.38246  -1.29899  -1.24105  -1.19692
 Alpha  occ. eigenvalues --   -1.07052  -1.04978  -1.01704  -0.97268  -0.89398
 Alpha  occ. eigenvalues --   -0.85868  -0.84641  -0.82015  -0.76626  -0.71423
 Alpha  occ. eigenvalues --   -0.67472  -0.66124  -0.65866  -0.63599  -0.62935
 Alpha  occ. eigenvalues --   -0.60807  -0.59450  -0.55334  -0.54752  -0.53063
 Alpha  occ. eigenvalues --   -0.52455  -0.51950  -0.48223  -0.45902  -0.43391
 Alpha  occ. eigenvalues --   -0.42993  -0.41024  -0.38791  -0.33019  -0.29190
 Alpha virt. eigenvalues --    0.10311   0.13837   0.17086   0.22151   0.23252
 Alpha virt. eigenvalues --    0.25251   0.26759   0.28103   0.29484   0.29908
 Alpha virt. eigenvalues --    0.29947   0.31115   0.32742   0.33571   0.36178

 Mulliken charges:
               1
     1  N   -0.584810
     2  C    0.547619
     3  N   -0.680442
     4  C   -0.014124
     5  C   -0.037681
     6  C    0.047640
     7  C    0.239472
     8  N   -0.655293
     9  C    0.673851
    10  N   -0.870977
    11  C   -0.064370
    12  C   -0.532413
    13  Br  -0.123982
    14  H    0.175834
    15  H    0.185362
    16  H    0.175834
    17  H    0.190824
    18  H    0.190824
    19  H    0.425149
    20  H    0.219683
    21  H    0.239127
    22  H    0.252874
 Sum of Mulliken charges =   0.00000

 Dipole moment (field-independent basis, Debye):
    X=              1.3847    Y=              1.5282    Z=             -0.0002  Tot=              2.0622
 Quadrupole moment (field-independent basis, Debye-Ang):
   XX=            -88.2161   YY=            -74.4068   ZZ=            -91.8564
   XY=             -9.4368   XZ=              0.0008   YZ=             -0.0008

 ESP charges:
               1
     1  N   -0.564683
     2  C    0.060970
     3  N    0.556113
     4  C   -0.611924
     5  C    0.204347
     6  C   -0.548613
     7  C    0.262388
     8  N   -0.592916
     9  C    0.676855
    10  N   -0.646413
    11  C    0.337363
    12  C   -0.320627
    13  Br  -0.085800
    14  H    0.090712
    15  H    0.081524
    16  H    0.090712
    17  H    0.001837
    18  H    0.001814
    19  H    0.339628
    20  H    0.130452
    21  H    0.287198
    22  H    0.249063
 Sum of ESP charges =   0.00000

 Normal termination of Gaussian 09 at Thu Jan 16 22:39:24 2014.
