 Gaussian 09, Revision D.01,
 Gaussian 09:  AM64L-G09RevD.01 24-Apr-2013

 -----------------------------------------
 # hf/gen pop=mk iop(6/33=2,6/41=5,6/42=2)
 -----------------------------------------

 -------
 na resp
 -------
 Symbolic Z-matrix:
 Charge =  0 Multiplicity = 1

                         Standard orientation:
 ---------------------------------------------------------------------
 Center     Atomic      Atomic             Coordinates (Angstroms)
 Number     Number       Type             X           Y           Z
 ---------------------------------------------------------------------
      1          6           0        0.993085   -0.952843    0.115147
      2          6           0        2.375999   -1.147879    0.180692
      3          6           0        3.236838   -0.071088    0.003045
      4          6           0        2.733853    1.209646   -0.239962
      5          6           0        1.360222    1.404319   -0.304705
      6          6           0        0.479232    0.326254   -0.128766
      7          8           0       -0.846894    0.628456   -0.218438
      8          6           0       -1.796973   -0.413586   -0.037802
      9          6           0       -3.186358    0.194167   -0.133245
     10          1           0       -3.218714    0.846309   -1.021529
     11          6           0       -4.256884   -0.886342   -0.295004
     12          8           0       -5.507469   -0.198929   -0.262561
     13          8           0       -3.431993    0.938317    1.046240
     14         17           0        4.978965   -0.321215    0.084674
     15          1           0        0.336245   -1.803089    0.257018
     16          1           0        2.775776   -2.138506    0.370069
     17          1           0        3.413247    2.044401   -0.375860
     18          1           0        0.944079    2.389362   -0.489781
     19          1           0       -1.673467   -0.879779    0.948946
     20          1           0       -1.663962   -1.182678   -0.813957
     21          1           0       -4.180692   -1.606314    0.533931
     22          1           0       -4.123391   -1.427007   -1.244205
     23          1           0       -6.211861   -0.844266   -0.105612
     24          1           0       -4.382906    1.143578    1.023198
 ---------------------------------------------------------------------

 SCF Done:  E(RHF) =  -1031.24565691     A.U. after   15 cycles

 The electronic state is 1-A.
 Alpha  occ. eigenvalues -- -104.81367 -20.59305 -20.58455 -20.55497 -11.31106
 Alpha  occ. eigenvalues --  -11.29534 -11.29532 -11.29388 -11.28886 -11.25399
 Alpha  occ. eigenvalues --  -11.25199 -11.24357 -11.23812 -10.55199  -8.02057
 Alpha  occ. eigenvalues --   -8.01732  -8.01724  -1.41649  -1.38742  -1.35001
 Alpha  occ. eigenvalues --   -1.17942  -1.10896  -1.05415  -1.02963  -0.98617
 Alpha  occ. eigenvalues --   -0.93020  -0.85413  -0.81584  -0.80367  -0.73405
 Alpha  occ. eigenvalues --   -0.72851  -0.70183  -0.66911  -0.66244  -0.64976
 Alpha  occ. eigenvalues --   -0.63596  -0.62120  -0.60432  -0.59459  -0.57609
 Alpha  occ. eigenvalues --   -0.54668  -0.54049  -0.53817  -0.52269  -0.50500
 Alpha  occ. eigenvalues --   -0.49913  -0.48590  -0.46987  -0.44703  -0.44383
 Alpha  occ. eigenvalues --   -0.43927  -0.34962  -0.30936
 Alpha virt. eigenvalues --    0.12842   0.14573   0.19683   0.20168   0.22925
 Alpha virt. eigenvalues --    0.26023   0.26898   0.27171   0.29166   0.29920
 Alpha virt. eigenvalues --    0.31240   0.31854   0.32289   0.33870   0.35278

 Mulliken charges:
               1
     1  C   -0.285822
     2  C   -0.164488
     3  C   -0.161578
     4  C   -0.165158
     5  C   -0.250425
     6  C    0.469884
     7  O   -0.707910
     8  C    0.009442
     9  C    0.166830
    10  H    0.182628
    11  C    0.003074
    12  O   -0.797493
    13  O   -0.795009
    14  Cl  -0.014145
    15  H    0.217537
    16  H    0.232603
    17  H    0.235072
    18  H    0.232773
    19  H    0.180813
    20  H    0.157406
    21  H    0.156770
    22  H    0.157986
    23  H    0.462639
    24  H    0.476572
 Sum of Mulliken charges =   0.00000

 Dipole moment (field-independent basis, Debye):
    X=             -4.1577    Y=             -3.1007    Z=             -0.8357  Tot=              5.2535
 Quadrupole moment (field-independent basis, Debye-Ang):
   XX=            -78.0129   YY=            -76.1925   ZZ=            -88.0028
   XY=             14.0383   XZ=              0.2347   YZ=             -2.2233

 ESP charges:
               1
     1  C   -0.455838
     2  C    0.038275
     3  C   -0.162748
     4  C    0.120784
     5  C   -0.521828
     6  C    0.641255
     7  O   -0.430064
     8  C    0.000897
     9  C    0.399860
    10  H    0.027990
    11  C    0.109282
    12  O   -0.699761
    13  O   -0.678928
    14  Cl  -0.118176
    15  H    0.184144
    16  H    0.141640
    17  H    0.120789
    18  H    0.223057
    19  H    0.098010
    20  H    0.027671
    21  H    0.018180
    22  H    0.032126
    23  H    0.454104
    24  H    0.429283
 Sum of ESP charges =   0.00000

 Normal termination of Gaussian 09 at Thu Jan 16 21:48:44 2014.
